<PP_INFO>
Generated using Fritz-Haber code                                                
Author: unknown    Generation date: as well                                     
OPIUM generated Fe potential                                                    
    1        The Pseudo was generated with a Scalar-Relativistic Calculation
nl pn  l   occ               Rcut            Rcut US             E pseu
3s  0  0  2.00      0.00000000000      0.00000000000      0.00000000000
3p  0  1  6.00      0.00000000000      0.00000000000      0.00000000000
4s  0  2  2.00      0.00000000000      0.00000000000      0.00000000000
</PP_INFO>


<PP_HEADER>
   0                   Version Number
  Fe                   Element
   NC                  Norm - Conserving pseudopotential
    T                  Nonlinear Core Correction
SLA  PW   NOGX NOGC    PW   Exchange-Correlation functional
   16.00000000000      Z valence
    0.00000000000      Total energy
  0.0000000  0.0000000 Suggested cutoff for wfc and rho
    2                  Max angular momentum component
 1160                  Number of points in mesh
    3    2             Number of Wavefunctions, Number of Projectors
 Wavefunctions         nl  l   occ
                       3s  0  2.00
                       3p  1  6.00
                       4s  2  2.00
</PP_HEADER>


<PP_MESH>
  <PP_R>
  3.37553190590E-05  3.41970029315E-05  3.46444661790E-05  3.50977844237E-05
  3.55570342775E-05  3.60222933547E-05  3.64936402853E-05  3.69711547279E-05
  3.74549173836E-05  3.79450100096E-05  3.84415154325E-05  3.89445175631E-05
  3.94541014098E-05  3.99703530935E-05  4.04933598621E-05  4.10232101048E-05
  4.15599933677E-05  4.21038003684E-05  4.26547230116E-05  4.32128544044E-05
  4.37782888726E-05  4.43511219757E-05  4.49314505240E-05  4.55193725944E-05
  4.61149875471E-05  4.67183960425E-05  4.73297000579E-05  4.79490029054E-05
  4.85764092484E-05  4.92120251203E-05  4.98559579415E-05  5.05083165382E-05
  5.11692111607E-05  5.18387535016E-05  5.25170567153E-05  5.32042354365E-05
  5.39004058002E-05  5.46056854608E-05  5.53201936121E-05  5.60440510078E-05
  5.67773799816E-05  5.75203044677E-05  5.82729500221E-05  5.90354438438E-05
  5.98079147961E-05  6.05904934282E-05  6.13833119980E-05  6.21865044936E-05
  6.30002066565E-05  6.38245560042E-05  6.46596918538E-05  6.55057553453E-05
  6.63628894653E-05  6.72312390715E-05  6.81109509172E-05  6.90021736757E-05
  6.99050579658E-05  7.08197563771E-05  7.17464234957E-05  7.26852159307E-05
  7.36362923402E-05  7.45998134583E-05  7.55759421225E-05  7.65648433007E-05
  7.75666841197E-05  7.85816338930E-05  7.96098641494E-05  8.06515486623E-05
  8.17068634789E-05  8.27759869499E-05  8.38590997598E-05  8.49563849570E-05
  8.60680279856E-05  8.71942167157E-05  8.83351414759E-05  8.94909950854E-05
  9.06619728860E-05  9.18482727757E-05  9.30500952422E-05  9.42676433963E-05
  9.55011230065E-05  9.67507425337E-05  9.80167131667E-05  9.92992488576E-05
  1.00598566358E-04  1.01914885255E-04  1.03248428011E-04  1.04599419996E-04
  1.05968089533E-04  1.07354667929E-04  1.08759389519E-04  1.10182491705E-04
  1.11624214994E-04  1.13084803042E-04  1.14564502690E-04  1.16063564012E-04
  1.17582240352E-04  1.19120788371E-04  1.20679468087E-04  1.22258542920E-04
  1.23858279737E-04  1.25478948899E-04  1.27120824302E-04  1.28784183427E-04
  1.30469307385E-04  1.32176480967E-04  1.33905992688E-04  1.35658134841E-04
  1.37433203542E-04  1.39231498781E-04  1.41053324475E-04  1.42898988516E-04
  1.44768802827E-04  1.46663083410E-04  1.48582150403E-04  1.50526328133E-04
  1.52495945170E-04  1.54491334386E-04  1.56512833005E-04  1.58560782665E-04
  1.60635529474E-04  1.62737424071E-04  1.64866821679E-04  1.67024082173E-04
  1.69209570134E-04  1.71423654915E-04  1.73666710702E-04  1.75939116576E-04
  1.78241256580E-04  1.80573519781E-04  1.82936300336E-04  1.85329997561E-04
  1.87755015997E-04  1.90211765477E-04  1.92700661199E-04  1.95222123791E-04
  1.97776579386E-04  2.00364459694E-04  2.02986202073E-04  2.05642249603E-04
  2.08333051163E-04  2.11059061504E-04  2.13820741329E-04  2.16618557368E-04
  2.19452982458E-04  2.22324495626E-04  2.25233582162E-04  2.28180733709E-04
  2.31166448344E-04  2.34191230659E-04  2.37255591849E-04  2.40360049798E-04
  2.43505129168E-04  2.46691361485E-04  2.49919285229E-04  2.53189445927E-04
  2.56502396244E-04  2.59858696076E-04  2.63258912646E-04  2.66703620600E-04
  2.70193402100E-04  2.73728846928E-04  2.77310552582E-04  2.80939124380E-04
  2.84615175559E-04  2.88339327380E-04  2.92112209233E-04  2.95934458745E-04
  2.99806721885E-04  3.03729653074E-04  3.07703915298E-04  3.11730180216E-04
  3.15809128276E-04  3.19941448831E-04  3.24127840251E-04  3.28369010049E-04
  3.32665674990E-04  3.37018561223E-04  3.41428404394E-04  3.45895949778E-04
  3.50421952402E-04  3.55007177169E-04  3.59652398994E-04  3.64358402930E-04
  3.69125984304E-04  3.73955948848E-04  3.78849112837E-04  3.83806303228E-04
  3.88828357797E-04  3.93916125285E-04  3.99070465535E-04  4.04292249644E-04
  4.09582360105E-04  4.14941690960E-04  4.20371147948E-04  4.25871648661E-04
  4.31444122696E-04  4.37089511814E-04  4.42808770101E-04  4.48602864123E-04
  4.54472773098E-04  4.60419489052E-04  4.66444016996E-04  4.72547375090E-04
  4.78730594814E-04  4.84994721148E-04  4.91340812745E-04  4.97769942108E-04
  5.04283195776E-04  5.10881674504E-04  5.17566493452E-04  5.24338782369E-04
  5.31199685788E-04  5.38150363218E-04  5.45191989340E-04  5.52325754206E-04
  5.59552863439E-04  5.66874538438E-04  5.74292016583E-04  5.81806551446E-04
  5.89419413001E-04  5.97131887839E-04  6.04945279388E-04  6.12860908129E-04
  6.20880111822E-04  6.29004245731E-04  6.37234682855E-04  6.45572814157E-04
  6.54020048802E-04  6.62577814391E-04  6.71247557208E-04  6.80030742460E-04
  6.88928854525E-04  6.97943397207E-04  7.07075893984E-04  7.16327888270E-04
  7.25700943674E-04  7.35196644265E-04  7.44816594839E-04  7.54562421190E-04
  7.64435770386E-04  7.74438311046E-04  7.84571733625E-04  7.94837750693E-04
  8.05238097234E-04  8.15774530929E-04  8.26448832462E-04  8.37262805814E-04
  8.48218278574E-04  8.59317102241E-04  8.70561152544E-04  8.81952329753E-04
  8.93492559006E-04  9.05183790628E-04  9.17028000464E-04  9.29027190215E-04
  9.41183387773E-04  9.53498647563E-04  9.65975050894E-04  9.78614706308E-04
  9.91419749937E-04  1.00439234586E-03  1.01753468649E-03  1.03084899289E-03
  1.04433751523E-03  1.05800253310E-03  1.07184635591E-03  1.08587132331E-03
  1.10007980554E-03  1.11447420388E-03  1.12905695102E-03  1.14383051146E-03
  1.15879738199E-03  1.17396009203E-03  1.18932120412E-03  1.20488331432E-03
  1.22064905267E-03  1.23662108362E-03  1.25280210647E-03  1.26919485586E-03
  1.28580210221E-03  1.30262665217E-03  1.31967134913E-03  1.33693907369E-03
  1.35443274414E-03  1.37215531694E-03  1.39010978726E-03  1.40829918944E-03
  1.42672659754E-03  1.44539512583E-03  1.46430792933E-03  1.48346820436E-03
  1.50287918905E-03  1.52254416389E-03  1.54246645233E-03  1.56264942126E-03
  1.58309648167E-03  1.60381108915E-03  1.62479674452E-03  1.64605699441E-03
  1.66759543185E-03  1.68941569689E-03  1.71152147720E-03  1.73391650871E-03
  1.75660457624E-03  1.77958951412E-03  1.80287520687E-03  1.82646558982E-03
  1.85036464980E-03  1.87457642581E-03  1.89910500969E-03  1.92395454685E-03
  1.94912923690E-03  1.97463333443E-03  2.00047114970E-03  2.02664704935E-03
  2.05316545717E-03  2.08003085485E-03  2.10724778269E-03  2.13482084042E-03
  2.16275468795E-03  2.19105404618E-03  2.21972369775E-03  2.24876848791E-03
  2.27819332530E-03  2.30800318278E-03  2.33820309829E-03  2.36879817569E-03
  2.39979358562E-03  2.43119456638E-03  2.46300642481E-03  2.49523453719E-03
  2.52788435014E-03  2.56096138156E-03  2.59447122155E-03  2.62841953335E-03
  2.66281205431E-03  2.69765459685E-03  2.73295304943E-03  2.76871337758E-03
  2.80494162489E-03  2.84164391400E-03  2.87882644770E-03  2.91649550992E-03
  2.95465746682E-03  2.99331876787E-03  3.03248594691E-03  3.07216562330E-03
  3.11236450298E-03  3.15308937968E-03  3.19434713599E-03  3.23614474456E-03
  3.27848926930E-03  3.32138786653E-03  3.36484778622E-03  3.40887637319E-03
  3.45348106837E-03  3.49866941008E-03  3.54444903525E-03  3.59082768074E-03
  3.63781318465E-03  3.68541348766E-03  3.73363663431E-03  3.78249077444E-03
  3.83198416451E-03  3.88212516903E-03  3.93292226194E-03  3.98438402807E-03
  4.03651916459E-03  4.08933648245E-03  4.14284490792E-03  4.19705348403E-03
  4.25197137217E-03  4.30760785359E-03  4.36397233100E-03  4.42107433011E-03
  4.47892350131E-03  4.53752962123E-03  4.59690259447E-03  4.65705245518E-03
  4.71798936885E-03  4.77972363394E-03  4.84226568371E-03  4.90562608790E-03
  4.96981555458E-03  5.03484493191E-03  5.10072521003E-03  5.16746752284E-03
  5.23508314996E-03  5.30358351860E-03  5.37298020547E-03  5.44328493878E-03
  5.51450960021E-03  5.58666622688E-03  5.65976701344E-03  5.73382431410E-03
  5.80885064472E-03  5.88485868492E-03  5.96186128024E-03  6.03987144431E-03
  6.11890236103E-03  6.19896738681E-03  6.28008005283E-03  6.36225406733E-03
  6.44550331792E-03  6.52984187390E-03  6.61528398870E-03  6.70184410224E-03
  6.78953684338E-03  6.87837703241E-03  6.96837968353E-03  7.05956000740E-03
  7.15193341372E-03  7.24551551380E-03  7.34032212325E-03  7.43636926462E-03
  7.53367317008E-03  7.63225028424E-03  7.73211726687E-03  7.83329099572E-03
  7.93578856939E-03  8.03962731021E-03  8.14482476719E-03  8.25139871894E-03
  8.35936717671E-03  8.46874838743E-03  8.57956083678E-03  8.69182325234E-03
  8.80555460671E-03  8.92077412077E-03  9.03750126688E-03  9.15575577222E-03
  9.27555762208E-03  9.39692706325E-03  9.51988460747E-03  9.64445103484E-03
  9.77064739739E-03  9.89849502260E-03  1.00280155170E-02  1.01592307700E-02
  1.02921629571E-02  1.04268345442E-02  1.05632682912E-02  1.07014872557E-02
  1.08415147970E-02  1.09833745801E-02  1.11270905796E-02  1.12726870839E-02
  1.14201886992E-02  1.15696203536E-02  1.17210073013E-02  1.18743751272E-02
  1.20297497507E-02  1.21871574305E-02  1.23466247690E-02  1.25081787165E-02
  1.26718465759E-02  1.28376560075E-02  1.30056350336E-02  1.31758120429E-02
  1.33482157959E-02  1.35228754291E-02  1.36998204604E-02  1.38790807939E-02
  1.40606867252E-02  1.42446689460E-02  1.44310585497E-02  1.46198870367E-02
  1.48111863194E-02  1.50049887278E-02  1.52013270151E-02  1.54002343628E-02
  1.56017443867E-02  1.58058911426E-02  1.60127091317E-02  1.62222333068E-02
  1.64344990779E-02  1.66495423184E-02  1.68673993713E-02  1.70881070547E-02
  1.73117026690E-02  1.75382240022E-02  1.77677093370E-02  1.80001974569E-02
  1.82357276531E-02  1.84743397307E-02  1.87160740156E-02  1.89609713616E-02
  1.92090731569E-02  1.94604213312E-02  1.97150583631E-02  1.99730272868E-02
  2.02343716996E-02  2.04991357694E-02  2.07673642419E-02  2.10391024485E-02
  2.13143963134E-02  2.15932923620E-02  2.18758377284E-02  2.21620801635E-02
  2.24520680428E-02  2.27458503751E-02  2.30434768102E-02  2.33449976478E-02
  2.36504638456E-02  2.39599270280E-02  2.42734394951E-02  2.45910542312E-02
  2.49128249141E-02  2.52388059237E-02  2.55690523515E-02  2.59036200100E-02
  2.62425654420E-02  2.65859459300E-02  2.69338195061E-02  2.72862449618E-02
  2.76432818579E-02  2.80049905344E-02  2.83714321210E-02  2.87426685471E-02
  2.91187625526E-02  2.94997776983E-02  2.98857783766E-02  3.02768298226E-02
  3.06729981249E-02  3.10743502369E-02  3.14809539880E-02  3.18928780953E-02
  3.23101921749E-02  3.27329667539E-02  3.31612732822E-02  3.35951841446E-02
  3.40347726730E-02  3.44801131591E-02  3.49312808663E-02  3.53883520431E-02
  3.58514039357E-02  3.63205148009E-02  3.67957639195E-02  3.72772316098E-02
  3.77649992409E-02  3.82591492468E-02  3.87597651400E-02  3.92669315258E-02
  3.97807341164E-02  4.03012597458E-02  4.08285963840E-02  4.13628331522E-02
  4.19040603376E-02  4.24523694090E-02  4.30078530318E-02  4.35706050841E-02
  4.41407206725E-02  4.47182961476E-02  4.53034291213E-02  4.58962184823E-02
  4.64967644134E-02  4.71051684084E-02  4.77215332890E-02  4.83459632223E-02
  4.89785637385E-02  4.96194417485E-02  5.02687055622E-02  5.09264649068E-02
  5.15928309452E-02  5.22679162949E-02  5.29518350468E-02  5.36447027848E-02
  5.43466366053E-02  5.50577551367E-02  5.57781785598E-02  5.65080286279E-02
  5.72474286872E-02  5.79965036983E-02  5.87553802565E-02  5.95241866138E-02
  6.03030527004E-02  6.10921101464E-02  6.18914923044E-02  6.27013342719E-02
  6.35217729141E-02  6.43529468871E-02  6.51949966614E-02  6.60480645452E-02
  6.69122947091E-02  6.77878332102E-02  6.86748280163E-02  6.95734290319E-02
  7.04837881225E-02  7.14060591411E-02  7.23403979537E-02  7.32869624657E-02
  7.42459126487E-02  7.52174105677E-02  7.62016204082E-02  7.71987085038E-02
  7.82088433649E-02  7.92321957067E-02  8.02689384782E-02  8.13192468913E-02
  8.23832984506E-02  8.34612729835E-02  8.45533526702E-02  8.56597220747E-02
  8.67805681761E-02  8.79160804001E-02  8.90664506510E-02  9.02318733439E-02
  9.14125454383E-02  9.26086664704E-02  9.38204385875E-02  9.50480665820E-02
  9.62917579261E-02  9.75517228064E-02  9.88281741600E-02  1.00121327710E-01
  1.01431402003E-01  1.02758618445E-01  1.04103201337E-01  1.05465377918E-01
  1.06845378399E-01  1.08243436004E-01  1.09659787006E-01  1.11094670774E-01
  1.12548329806E-01  1.14021009773E-01  1.15512959562E-01  1.17024431316E-01
  1.18555680478E-01  1.20106965831E-01  1.21678549548E-01  1.23270697230E-01
  1.24883677952E-01  1.26517764314E-01  1.28173232478E-01  1.29850362224E-01
  1.31549436991E-01  1.33270743925E-01  1.35014573932E-01  1.36781221724E-01
  1.38570985867E-01  1.40384168837E-01  1.42221077066E-01  1.44082020995E-01
  1.45967315129E-01  1.47877278086E-01  1.49812232655E-01  1.51772505849E-01
  1.53758428957E-01  1.55770337605E-01  1.57808571811E-01  1.59873476041E-01
  1.61965399270E-01  1.64084695036E-01  1.66231721506E-01  1.68406841533E-01
  1.70610422717E-01  1.72842837469E-01  1.75104463071E-01  1.77395681745E-01
  1.79716880710E-01  1.82068452257E-01  1.84450793805E-01  1.86864307976E-01
  1.89309402660E-01  1.91786491084E-01  1.94295991881E-01  1.96838329164E-01
  1.99413932592E-01  2.02023237450E-01  2.04666684715E-01  2.07344721138E-01
  2.10057799312E-01  2.12806377754E-01  2.15590920980E-01  2.18411899585E-01
  2.21269790321E-01  2.24165076178E-01  2.27098246466E-01  2.30069796899E-01
  2.33080229675E-01  2.36130053564E-01  2.39219783995E-01  2.42349943138E-01
  2.45521059999E-01  2.48733670503E-01  2.51988317590E-01  2.55285551301E-01
  2.58625928879E-01  2.62010014854E-01  2.65438381146E-01  2.68911607155E-01
  2.72430279866E-01  2.75994993943E-01  2.79606351831E-01  2.83264963858E-01
  2.86971448337E-01  2.90726431675E-01  2.94530548471E-01  2.98384441631E-01
  3.02288762472E-01  3.06244170834E-01  3.10251335189E-01  3.14310932758E-01
  3.18423649623E-01  3.22590180842E-01  3.26811230570E-01  3.31087512174E-01
  3.35419748355E-01  3.39808671272E-01  3.44255022664E-01  3.48759553973E-01
  3.53323026477E-01  3.57946211414E-01  3.62629890112E-01  3.67374854125E-01
  3.72181905363E-01  3.77051856228E-01  3.81985529755E-01  3.86983759745E-01
  3.92047390911E-01  3.97177279020E-01  4.02374291035E-01  4.07639305262E-01
  4.12973211502E-01  4.18376911197E-01  4.23851317587E-01  4.29397355858E-01
  4.35015963304E-01  4.40708089483E-01  4.46474696378E-01  4.52316758560E-01
  4.58235263350E-01  4.64231210991E-01  4.70305614811E-01  4.76459501399E-01
  4.82693910777E-01  4.89009896575E-01  4.95408526210E-01  5.01890881064E-01
  5.08458056672E-01  5.15111162901E-01  5.21851324144E-01  5.28679679502E-01
  5.35597382984E-01  5.42605603698E-01  5.49705526051E-01  5.56898349947E-01
  5.64185290989E-01  5.71567580688E-01  5.79046466668E-01  5.86623212880E-01
  5.94299099810E-01  6.02075424703E-01  6.09953501776E-01  6.17934662443E-01
  6.26020255538E-01  6.34211647546E-01  6.42510222832E-01  6.50917383875E-01
  6.59434551505E-01  6.68063165144E-01  6.76804683048E-01  6.85660582554E-01
  6.94632360331E-01  7.03721532630E-01  7.12929635542E-01  7.22258225260E-01
  7.31708878337E-01  7.41283191956E-01  7.50982784199E-01  7.60809294320E-01
  7.70764383022E-01  7.80849732740E-01  7.91067047921E-01  8.01418055315E-01
  8.11904504269E-01  8.22528167016E-01  8.33290838981E-01  8.44194339081E-01
  8.55240510034E-01  8.66431218669E-01  8.77768356241E-01  8.89253838755E-01
  9.00889607285E-01  9.12677628302E-01  9.24619894011E-01  9.36718422682E-01
  9.48975258996E-01  9.61392474388E-01  9.73972167396E-01  9.86716464019E-01
  9.99627518072E-01  1.01270751156E+00  1.02595865502E+00  1.03938318794E+00
  1.05298337909E+00  1.06676152693E+00  1.08071996002E+00  1.09486103735E+00
  1.10918714880E+00  1.12370071552E+00  1.13840419033E+00  1.15330005817E+00
  1.16839083645E+00  1.18367907557E+00  1.19916735927E+00  1.21485830511E+00
  1.23075456489E+00  1.24685882513E+00  1.26317380747E+00  1.27970226919E+00
  1.29644700365E+00  1.31341084073E+00  1.33059664737E+00  1.34800732801E+00
  1.36564582510E+00  1.38351511958E+00  1.40161823141E+00  1.41995822005E+00
  1.43853818502E+00  1.45736126636E+00  1.47643064523E+00  1.49574954439E+00
  1.51532122878E+00  1.53514900607E+00  1.55523622719E+00  1.57558628693E+00
  1.59620262451E+00  1.61708872413E+00  1.63824811560E+00  1.65968437489E+00
  1.68140112480E+00  1.70340203549E+00  1.72569082519E+00  1.74827126074E+00
  1.77114715830E+00  1.79432238394E+00  1.81780085433E+00  1.84158653740E+00
  1.86568345297E+00  1.89009567349E+00  1.91482732467E+00  1.93988258623E+00
  1.96526569257E+00  1.99098093348E+00  2.01703265491E+00  2.04342525966E+00
  2.07016320814E+00  2.09725101914E+00  2.12469327054E+00  2.15249460017E+00
  2.18065970650E+00  2.20919334952E+00  2.23810035147E+00  2.26738559771E+00
  2.29705403751E+00  2.32711068491E+00  2.35756061955E+00  2.38840898755E+00
  2.41966100235E+00  2.45132194562E+00  2.48339716814E+00  2.51589209068E+00
  2.54881220498E+00  2.58216307461E+00  2.61595033594E+00  2.65017969911E+00
  2.68485694895E+00  2.71998794601E+00  2.75557862750E+00  2.79163500834E+00
  2.82816318214E+00  2.86516932225E+00  2.90265968280E+00  2.94064059974E+00
  2.97911849194E+00  3.01809986226E+00  3.05759129863E+00  3.09759947521E+00
  3.13813115348E+00  3.17919318338E+00  3.22079250450E+00  3.26293614721E+00
  3.30563123390E+00  3.34888498014E+00  3.39270469591E+00  3.43709778684E+00
  3.48207175549E+00  3.52763420255E+00  3.57379282818E+00  3.62055543331E+00
  3.66792992092E+00  3.71592429742E+00  3.76454667397E+00  3.81380526787E+00
  3.86370840394E+00  3.91426451592E+00  3.96548214792E+00  4.01736995585E+00
  4.06993670885E+00  4.12319129085E+00  4.17714270199E+00  4.23180006019E+00
  4.28717260267E+00  4.34326968753E+00  4.40010079529E+00  4.45767553057E+00
  4.51600362362E+00  4.57509493203E+00  4.63495944238E+00  4.69560727190E+00
  4.75704867023E+00  4.81929402110E+00  4.88235384413E+00  4.94623879659E+00
  5.01095967517E+00  5.07652741787E+00  5.14295310578E+00  5.21024796500E+00
  5.27842336854E+00  5.34749083818E+00  5.41746204651E+00  5.48834881881E+00
  5.56016313513E+00  5.63291713226E+00  5.70662310578E+00  5.78129351219E+00
  5.85694097097E+00  5.93357826671E+00  6.01121835129E+00  6.08987434609E+00
  6.16955954415E+00  6.25028741245E+00  6.33207159420E+00  6.41492591113E+00
  6.49886436580E+00  6.58390114401E+00  6.67005061719E+00  6.75732734480E+00
  6.84574607682E+00  6.93532175621E+00  7.02606952149E+00  7.11800470924E+00
  7.21114285672E+00  7.30549970452E+00  7.40109119915E+00  7.49793349581E+00
  7.59604296107E+00  7.69543617568E+00  7.79612993731E+00  7.89814126346E+00
  8.00148739428E+00  8.10618579552E+00  8.21225416145E+00  8.31971041787E+00
  8.42857272516E+00  8.53885948130E+00  8.65058932502E+00  8.76378113892E+00
  8.87845405270E+00  8.99462744634E+00  9.11232095342E+00  9.23155446444E+00
  9.35234813013E+00  9.47472236492E+00  9.59869785033E+00  9.72429553853E+00
  9.85153665582E+00  9.98044270625E+00  1.01110354753E+01  1.02433370333E+01
  1.03773697397E+01  1.05131562463E+01  1.06507195013E+01  1.07900827533E+01
  1.09312695549E+01  1.10743037671E+01  1.12192095630E+01  1.13660114320E+01
  1.15147341840E+01  1.16654029535E+01  1.18180432038E+01  1.19726807316E+01
  1.21293416709E+01  1.22880524979E+01  1.24488400349E+01  1.26117314555E+01
  1.27767542888E+01  1.29439364240E+01  1.31133061152E+01  1.32848919864E+01
  1.34587230359E+01  1.36348286417E+01  1.38132385659E+01  1.39939829604E+01
  1.41770923712E+01  1.43625977444E+01  1.45505304309E+01  1.47409221916E+01
  1.49338052032E+01  1.51292120635E+01  1.53271757966E+01  1.55277298589E+01
  1.57309081445E+01  1.59367449910E+01  1.61452751854E+01  1.63565339697E+01
  1.65705570471E+01  1.67873805881E+01  1.70070412365E+01  1.72295761152E+01
  1.74550228334E+01  1.76834194919E+01  1.79148046904E+01  1.81492175336E+01
  1.83866976377E+01  1.86272851375E+01  1.88710206927E+01  1.91179454955E+01
  1.93681012765E+01  1.96215303127E+01  1.98782754342E+01  2.01383800316E+01
  2.04018880632E+01  2.06688440624E+01  2.09392931454E+01  2.12132810188E+01
  2.14908539872E+01  2.17720589611E+01  2.20569434647E+01  2.23455556443E+01
  2.26379442760E+01  2.29341587742E+01  2.32342491997E+01  2.35382662687E+01
  2.38462613607E+01  2.41582865277E+01  2.44743945025E+01  2.47946387083E+01
  2.51190732670E+01  2.54477530089E+01  2.57807334817E+01  2.61180709597E+01
  2.64598224539E+01  2.68060457211E+01  2.71567992738E+01  2.75121423902E+01
  2.78721351242E+01  2.82368383153E+01  2.86063135993E+01  2.89806234184E+01
  2.93598310318E+01  2.97440005266E+01  3.01331968282E+01  3.05274857119E+01
  3.09269338132E+01  3.13316086400E+01  3.17415785832E+01  3.21569129288E+01
  3.25776818692E+01  3.30039565153E+01  3.34358089087E+01  3.38733120333E+01
  3.43165398283E+01  3.47655672002E+01  3.52204700357E+01  3.56813252145E+01
  3.61482106221E+01  3.66212051634E+01  3.71003887755E+01  3.75858424417E+01
  3.80776482046E+01  3.85758891807E+01  3.90806495740E+01  3.95920146900E+01
  4.01100709507E+01  4.06349059089E+01  4.11666082629E+01  4.17052678716E+01
  4.22509757700E+01  4.28038241837E+01  4.33639065457E+01  4.39313175110E+01
  4.45061529736E+01  4.50885100819E+01  4.56784872558E+01  4.62761842028E+01
  4.68817019350E+01  4.74951427864E+01  4.81166104300E+01  4.87462098953E+01
  4.93840475860E+01  5.00302312984E+01  5.06848702389E+01  5.13480750431E+01
  5.20199577943E+01  5.27006320421E+01  5.33902128221E+01  5.40888166752E+01
  5.47965616670E+01  5.55135674082E+01  5.62399550744E+01  5.69758474269E+01
  5.77213688332E+01  5.84766452882E+01  5.92418044354E+01  6.00169755886E+01
  6.08022897536E+01  6.15978796502E+01  6.24038797350E+01  6.32204262241E+01
  6.40476571157E+01  6.48857122137E+01  6.57347331516E+01  6.65948634158E+01
  6.74662483705E+01  6.83490352816E+01  6.92433733425E+01  7.01494136982E+01
  7.10673094718E+01  7.19972157899E+01  7.29392898088E+01  7.38936907412E+01
  7.48605798833E+01  7.58401206416E+01  7.68324785607E+01  7.78378213516E+01
  7.88563189196E+01  7.98881433931E+01  8.09334691530E+01  8.19924728619E+01
  8.30653334938E+01  8.41522323647E+01  8.52533531632E+01  8.63688819814E+01
  8.74990073461E+01  8.86439202513E+01  8.98038141901E+01  9.09788851872E+01
  9.21693318324E+01  9.33753553141E+01  9.45971594530E+01  9.58349507371E+01
  9.70889383559E+01  9.83593342364E+01  9.96463530785E+01  1.00950212391E+02
  1.02271132530E+02  1.03609336734E+02  1.04965051163E+02  1.06338504935E+02
  1.07729930167E+02  1.09139562014E+02  1.10567638707E+02  1.12014401593E+02
  1.13480095181E+02  1.14964967174E+02  1.16469268520E+02  1.17993253451E+02
  </PP_R>
  <PP_RAB>
  4.38819147766E-07  4.44561038110E-07  4.50378060327E-07  4.56271197508E-07
  4.62241445608E-07  4.68289813612E-07  4.74417323709E-07  4.80625011463E-07
  4.86913925987E-07  4.93285130125E-07  4.99739700623E-07  5.06278728320E-07
  5.12903318327E-07  5.19614590216E-07  5.26413678207E-07  5.33301731363E-07
  5.40279913780E-07  5.47349404789E-07  5.54511399150E-07  5.61767107258E-07
  5.69117755343E-07  5.76564585684E-07  5.84108856812E-07  5.91751843727E-07
  5.99494838112E-07  6.07339148552E-07  6.15286100753E-07  6.23337037770E-07
  6.31493320230E-07  6.39756326563E-07  6.48127453239E-07  6.56608114997E-07
  6.65199745089E-07  6.73903795521E-07  6.82721737299E-07  6.91655060675E-07
  7.00705275403E-07  7.09873910990E-07  7.19162516957E-07  7.28572663102E-07
  7.38105939760E-07  7.47763958080E-07  7.57548350288E-07  7.67460769970E-07
  7.77502892349E-07  7.87676414567E-07  7.97983055974E-07  8.08424558417E-07
  8.19002686534E-07  8.29719228055E-07  8.40575994100E-07  8.51574819488E-07
  8.62717563048E-07  8.74006107930E-07  8.85442361924E-07  8.97028257784E-07
  9.08765753555E-07  9.20656832902E-07  9.32703505444E-07  9.44907807099E-07
  9.57271800422E-07  9.69797574958E-07  9.82487247592E-07  9.95342962910E-07
  1.00836689356E-06  1.02156124061E-06  1.03492823394E-06  1.04847013261E-06
  1.06218922523E-06  1.07608783035E-06  1.09016829688E-06  1.10443300444E-06
  1.11888436381E-06  1.13352481730E-06  1.14835683919E-06  1.16338293611E-06
  1.17860564752E-06  1.19402754608E-06  1.20965123815E-06  1.22547936415E-06
  1.24151459908E-06  1.25775965294E-06  1.27421727117E-06  1.29089023515E-06
  1.30778136265E-06  1.32489350832E-06  1.34222956414E-06  1.35979245995E-06
  1.37758516393E-06  1.39561068307E-06  1.41387206375E-06  1.43237239217E-06
  1.45111479493E-06  1.47010243954E-06  1.48933853497E-06  1.50882633215E-06
  1.52856912458E-06  1.54857024882E-06  1.56883308513E-06  1.58936105796E-06
  1.61015763659E-06  1.63122633569E-06  1.65257071593E-06  1.67419438455E-06
  1.69610099600E-06  1.71829425256E-06  1.74077790494E-06  1.76355575293E-06
  1.78663164604E-06  1.81000948415E-06  1.83369321817E-06  1.85768685071E-06
  1.88199443675E-06  1.90662008432E-06  1.93156795523E-06  1.95684226572E-06
  1.98244728722E-06  2.00838734702E-06  2.03466682906E-06  2.06129017464E-06
  2.08826188316E-06  2.11558651292E-06  2.14326868183E-06  2.17131306825E-06
  2.19972441174E-06  2.22850751390E-06  2.25766723913E-06  2.28720851549E-06
  2.31713633554E-06  2.34745575715E-06  2.37817190436E-06  2.40928996829E-06
  2.44081520796E-06  2.47275295120E-06  2.50510859558E-06  2.53788760928E-06
  2.57109553202E-06  2.60473797602E-06  2.63882062695E-06  2.67334924484E-06
  2.70832966511E-06  2.74376779955E-06  2.77966963727E-06  2.81604124578E-06
  2.85288877196E-06  2.89021844313E-06  2.92803656810E-06  2.96634953822E-06
  3.00516382847E-06  3.04448599856E-06  3.08432269403E-06  3.12468064738E-06
  3.16556667919E-06  3.20698769931E-06  3.24895070798E-06  3.29146279705E-06
  3.33453115117E-06  3.37816304899E-06  3.42236586440E-06  3.46714706780E-06
  3.51251422729E-06  3.55847501006E-06  3.60503718357E-06  3.65220861694E-06
  3.69999728227E-06  3.74841125594E-06  3.79745872003E-06  3.84714796369E-06
  3.89748738450E-06  3.94848548997E-06  4.00015089887E-06  4.05249234281E-06
  4.10551866759E-06  4.15923883480E-06  4.21366192327E-06  4.26879713063E-06
  4.32465377487E-06  4.38124129589E-06  4.43856925712E-06  4.49664734712E-06
  4.55548538122E-06  4.61509330319E-06  4.67548118692E-06  4.73665923809E-06
  4.79863779595E-06  4.86142733502E-06  4.92503846688E-06  4.98948194196E-06
  5.05476865136E-06  5.12090962870E-06  5.18791605195E-06  5.25579924537E-06
  5.32457068136E-06  5.39424198248E-06  5.46482492332E-06  5.53633143259E-06
  5.60877359505E-06  5.68216365359E-06  5.75651401131E-06  5.83183723360E-06
  5.90814605027E-06  5.98545335768E-06  6.06377222095E-06  6.14311587617E-06
  6.22349773258E-06  6.30493137493E-06  6.38743056568E-06  6.47100924740E-06
  6.55568154509E-06  6.64146176856E-06  6.72836441487E-06  6.81640417079E-06
  6.90559591524E-06  6.99595472183E-06  7.08749586142E-06  7.18023480468E-06
  7.27418722471E-06  7.36936899970E-06  7.46579621558E-06  7.56348516880E-06
  7.66245236901E-06  7.76271454191E-06  7.86428863204E-06  7.96719180567E-06
  8.07144145368E-06  8.17705519450E-06  8.28405087712E-06  8.39244658405E-06
  8.50226063442E-06  8.61351158708E-06  8.72621824370E-06  8.84039965197E-06
  8.95607510883E-06  9.07326416369E-06  9.19198662179E-06  9.31226254751E-06
  9.43411226777E-06  9.55755637545E-06  9.68261573291E-06  9.80931147547E-06
  9.93766501501E-06  1.00676980436E-05  1.01994325371E-05  1.03328907590E-05
  1.04680952640E-05  1.06050689021E-05  1.07438348220E-05  1.08844164756E-05
  1.10268376215E-05  1.11711223291E-05  1.13172949831E-05  1.14653802868E-05
  1.16154032671E-05  1.17673892782E-05  1.19213640060E-05  1.20773534728E-05
  1.22353840410E-05  1.23954824183E-05  1.25576756616E-05  1.27219911820E-05
  1.28884567492E-05  1.30571004962E-05  1.32279509243E-05  1.34010369076E-05
  1.35763876980E-05  1.37540329303E-05  1.39340026268E-05  1.41163272030E-05
  1.43010374720E-05  1.44881646505E-05  1.46777403632E-05  1.48697966490E-05
  1.50643659658E-05  1.52614811964E-05  1.54611756535E-05  1.56634830862E-05
  1.58684376847E-05  1.60760740871E-05  1.62864273842E-05  1.64995331262E-05
  1.67154273287E-05  1.69341464782E-05  1.71557275387E-05  1.73802079580E-05
  1.76076256738E-05  1.78380191203E-05  1.80714272344E-05  1.83078894628E-05
  1.85474457680E-05  1.87901366358E-05  1.90360030813E-05  1.92850866567E-05
  1.95374294576E-05  1.97930741306E-05  2.00520638803E-05  2.03144424764E-05
  2.05802542617E-05  2.08495441590E-05  2.11223576788E-05  2.13987409274E-05
  2.16787406141E-05  2.19624040595E-05  2.22497792035E-05  2.25409146132E-05
  2.28358594911E-05  2.31346636836E-05  2.34373776893E-05  2.37440526676E-05
  2.40547404474E-05  2.43694935355E-05  2.46883651260E-05  2.50114091090E-05
  2.53386800797E-05  2.56702333476E-05  2.60061249461E-05  2.63464116415E-05
  2.66911509433E-05  2.70404011130E-05  2.73942211750E-05  2.77526709255E-05
  2.81158109434E-05  2.84837026003E-05  2.88564080708E-05  2.92339903428E-05