<UPF version="2.0.1">
  <PP_INFO>
    Generated using FHI98PP, converted with fhi2upf.x v.5.0.2
    Author: unknown
    Generation date: unknown
    Pseudopotential type: SL
    Element: Si
    Functional: SLA-PW

    Suggested minimum cutoff for wavefunctions:   0. Ry
    Suggested minimum cutoff for charge density:   0. Ry
    The Pseudo was generated with a Non-Relativistic Calculation
    L component and cutoff radius for Local Potential:  0   0.0000

    Valence configuration: 
    nl pn  l   occ       Rcut    Rcut US       E pseu
    3s  3  0  1.00      0.000      0.000     0.000000
    3p  3  1  1.00      0.000      0.000     0.000000
    3d  3  2  0.01      0.000      0.000     0.000000

    Generation configuration: not available.
    Comment:
    OPIUM generated Si potential
  </PP_INFO>
  <!--                               -->
  <!-- END OF HUMAN READABLE SECTION -->
  <!--                               -->
  <PP_HEADER generated="Generated using FHI98PP, converted with fhi2upf.x v.5.0.2"
             author="unknown"
             date="unknown"
             comment="OPIUM generated Si potential"
             element="Si"
             pseudo_type="SL"
             relativistic="no"
             is_ultrasoft="F"
             is_paw="F"
             is_coulomb="F"
             has_so="F"
             has_wfc="F"
             has_gipaw="F"
             paw_as_gipaw="F"
             core_correction="F"
             functional="SLA-PW"
             z_valence="4.000000000000000E+000"
             total_psenergy="0.000000000000000E+000"
             wfc_cutoff="0.000000000000000E+000"
             rho_cutoff="0.000000000000000E+000"
             l_max="2"
             l_max_rho="0"
             l_local="0"
             mesh_size="1144"
             number_of_wfc="3"
             number_of_proj="2"/>
  <PP_MESH dx="1.299999999999981E-002" mesh="1144" xmin="-7.450968818899343E+000" rmax="1.177983013678069E+002"
zmesh="1.400000000000000E+001">
    <PP_R type="real" size="1144" columns="4">
 4.149132666831217E-005  4.203423517434955E-005  4.258424756617693E-005  4.314145679719763E-005 
 4.370595703709791E-005  4.427784368776185E-005  4.485721339939457E-005  4.544416408685631E-005 
 4.603879494621023E-005  4.664120647148684E-005  4.725150047166771E-005  4.786978008789145E-005 
 4.849614981088474E-005  4.913071549862160E-005  4.977358439421359E-005  5.042486514403413E-005 
 5.108466781608009E-005  5.175310391857341E-005  5.243028641880637E-005  5.311632976223325E-005 
 5.381134989181195E-005  5.451546426759859E-005  5.522879188659853E-005  5.595145330287718E-005 
 5.668357064793389E-005  5.742526765134248E-005  5.817666966166183E-005  5.893790366762011E-005 
 5.970909831957613E-005  6.049038395126158E-005  6.128189260180777E-005  6.208375803806049E-005 
 6.289611577718701E-005  6.371910310957869E-005  6.455285912205353E-005  6.539752472136205E-005 
 6.625324265800092E-005  6.712015755033811E-005  6.799841590905377E-005  6.888816616190088E-005 
 6.978955867878985E-005  7.070274579720144E-005  7.162788184793210E-005  7.256512318117638E-005 
 7.351462819295030E-005  7.447655735186073E-005  7.545107322622506E-005  7.643834051154545E-005 
 7.743852605834295E-005  7.845179890035550E-005  7.947833028310508E-005  8.051829369283861E-005 
 8.157186488584756E-005  8.263922191817114E-005  8.372054517568825E-005  8.481601740460302E-005 
 8.592582374232953E-005  8.705015174878026E-005  8.818919143806431E-005  8.934313531060020E-005 
 9.051217838564888E-005  9.169651823427247E-005  9.289635501272426E-005  9.411189149627549E-005 
 9.534333311348501E-005  9.659088798091706E-005  9.785476693831354E-005  9.913518358422643E-005 
 1.004323543121164E-004  1.017464983469237E-004  1.030778377821183E-004  1.044265976172332E-004 
 1.057930057958909E-004  1.071772932443257E-004  1.085796939104110E-004  1.100004448031974E-004 
 1.114397860329673E-004  1.128979608518141E-004  1.143752156947531E-004  1.158718002213685E-004 
 1.173879673580074E-004  1.189239733405245E-004  1.204800777575868E-004  1.220565435945443E-004 
 1.236536372778756E-004  1.252716287202146E-004  1.269107913659659E-004  1.285714022375180E-004 
 1.302537419820606E-004  1.319580949190146E-004  1.336847490880830E-004  1.354339962979300E-004 
 1.372061321754973E-004  1.390014562159661E-004  1.408202718333724E-004  1.426628864118843E-004 
 1.445296113577513E-004  1.464207621519322E-004  1.483366584034125E-004  1.502776239032184E-004 
 1.522439866791393E-004  1.542360790511644E-004  1.562542376876459E-004  1.582988036621969E-004 
 1.603701225113332E-004  1.624685442928704E-004  1.645944236450838E-004  1.667481198466440E-004 
 1.689299968773349E-004  1.711404234795678E-004  1.733797732206995E-004  1.756484245561661E-004 
 1.779467608934430E-004  1.802751706568414E-004  1.826340473531532E-004  1.850237896381542E-004 
 1.874448013839788E-004  1.898974917473738E-004  1.923822752388487E-004  1.948995717927273E-004 
 1.974498068381187E-004  2.000334113708155E-004  2.026508220261328E-004  2.053024811527010E-004 
 2.079888368872238E-004  2.107103432302141E-004  2.134674601227213E-004  2.162606535240625E-004 
 2.190903954905705E-004  2.219571642553727E-004  2.248614443092137E-004  2.278037264823348E-004 
 2.307845080274264E-004  2.338042927036641E-004  2.368635908618456E-004  2.399629195306409E-004 
 2.431028025039719E-004  2.462837704295343E-004  2.495063608984783E-004  2.527711185362636E-004 
 2.560785950947012E-004  2.594293495452017E-004  2.628239481732422E-004  2.662629646740705E-004 
 2.697469802496602E-004  2.732765837069361E-004  2.768523715572832E-004  2.804749481173588E-004 
 2.841449256112238E-004  2.878629242738095E-004  2.916295724557391E-004  2.954455067295202E-004 
 2.993113719971277E-004  3.032278215989926E-004  3.071955174244192E-004  3.112151300234458E-004 
 3.152873387201683E-004  3.194128317275489E-004  3.235923062637249E-004  3.278264686698404E-004 
 3.321160345294200E-004  3.364617287893032E-004  3.408642858821634E-004  3.453244498506275E-004 
 3.498429744730221E-004  3.544206233907627E-004  3.590581702374117E-004  3.637563987694240E-004 
 3.685161029986037E-004  3.733380873262943E-004  3.782231666793236E-004  3.831721666477296E-004 
 3.881859236242858E-004  3.932652849458547E-004  3.984111090365887E-004  4.036242655530069E-004 
 4.089056355309683E-004  4.142561115345695E-004  4.196765978069897E-004  4.251680104233102E-004 
 4.307312774453331E-004  4.363673390784264E-004  4.420771478304207E-004  4.478616686725844E-004 
 4.537218792027080E-004  4.596587698103187E-004  4.656733438440597E-004  4.717666177812582E-004 
 4.779396213997116E-004  4.841933979517243E-004  4.905290043404179E-004  4.969475112983516E-004 
 5.034500035684777E-004  5.100375800874666E-004  5.167113541714292E-004  5.234724537040696E-004 
 5.303220213273014E-004  5.372612146343549E-004  5.442912063654154E-004  5.514131846058173E-004 
 5.586283529868346E-004  5.659379308890959E-004  5.733431536486645E-004  5.808452727658119E-004 
 5.884455561165247E-004  5.961452881667788E-004  6.039457701896162E-004  6.118483204850650E-004 
 6.198542746029341E-004  6.279649855685244E-004  6.361818241112930E-004  6.445061788965107E-004 
 6.529394567599488E-004  6.614830829456386E-004  6.701385013467401E-004  6.789071747495634E-004 
 6.877905850807841E-004  6.967902336578917E-004  7.059076414429158E-004  7.151443492994720E-004 
 7.245019182531726E-004  7.339819297554426E-004  7.435859859507892E-004  7.533157099475685E-004 
 7.631727460922928E-004  7.731587602475317E-004  7.832754400734450E-004  7.935244953130025E-004 
 8.039076580809326E-004  8.144266831564564E-004  8.250833482798478E-004  8.358794544528768E-004 
 8.468168262431826E-004  8.578973120926290E-004  8.691227846296979E-004  8.804951409859652E-004 
 8.920163031167235E-004  9.036882181257931E-004  9.155128585945913E-004  9.274922229155011E-004 
 9.396283356296048E-004  9.519232477688368E-004  9.643790372026106E-004  9.769978089889872E-004 
 9.897816957304322E-004  1.002732857934232E-003  1.015853484377624E-003  1.029145792477705E-003 
 1.042612028666181E-003  1.056254468769020E-003  1.070075418391069E-003  1.084077213305708E-003 
 1.098262219849604E-003  1.112632835322626E-003  1.127191488392991E-003  1.141940639507719E-003 
 1.156882781308453E-003  1.172020439052721E-003  1.187356171040711E-003  1.202892569047630E-003 
 1.218632258761719E-003  1.234577900228000E-003  1.250732188297835E-003  1.267097853084357E-003 
 1.283677660423864E-003  1.300474412343261E-003  1.317490947533598E-003  1.334730141829824E-003 
 1.352194908696807E-003  1.369888199721714E-003  1.387813005112840E-003  1.405972354204960E-003 
 1.424369315971291E-003  1.443006999542157E-003  1.461888554730442E-003  1.481017172563913E-003 
 1.500396085824511E-003  1.520028569594702E-003  1.539917941810969E-003  1.560067563824556E-003 
 1.580480840969541E-003  1.601161223138347E-003  1.622112205364782E-003  1.643337328414708E-003 
 1.664840179384437E-003  1.686624392306963E-003  1.708693648766119E-003  1.731051678518772E-003 
 1.753702260125165E-003  1.776649221587500E-003  1.799896440996881E-003  1.823447847188718E-003 
 1.847307420406712E-003  1.871479192975525E-003  1.895967249982252E-003  1.920775729966812E-003 
 1.945908825621368E-003  1.971370784498906E-003  1.997165909731077E-003  2.023298560755441E-003 
 2.049773154052218E-003  2.076594163890689E-003  2.103766123085353E-003  2.131293623761984E-003 
 2.159181318133718E-003  2.187433919287275E-003  2.216056201979496E-003  2.245053003444280E-003 
 2.274429224210089E-003  2.304189828928152E-003  2.334339847211500E-003  2.364884374484979E-003 
 2.395828572846401E-003  2.427177671938936E-003  2.458936969834947E-003  2.491111833931368E-003 
 2.523707701856811E-003  2.556730082390536E-003  2.590184556393450E-003  2.624076777751286E-003 
 2.658412474330117E-003  2.693197448944389E-003  2.728437580337602E-003  2.764138824175838E-003 
 2.800307214054277E-003  2.836948862516894E-003  2.874069962089489E-003  2.911676786326241E-003 
 2.949775690869958E-003  2.988373114526180E-003  3.027475580351375E-003  3.067089696755333E-003 
 3.107222158618014E-003  3.147879748420990E-003  3.189069337393708E-003  3.230797886674739E-003 
 3.273072448488229E-003  3.315900167335746E-003  3.359288281203702E-003  3.403244122786614E-003 
 3.447775120726327E-003  3.492888800867480E-003  3.538592787529394E-003  3.584894804794593E-003 
 3.631802677814199E-003  3.679324334130397E-003  3.727467805016214E-003  3.776241226832810E-003 
 3.825652842404560E-003  3.875711002412100E-003  3.926424166803616E-003  3.977800906224589E-003 
 4.029849903466266E-003  4.082579954933062E-003  4.135999972129176E-003  4.190118983164664E-003 
 4.244946134281192E-003  4.300490691397795E-003  4.356762041676829E-003  4.413769695110421E-003 
 4.471523286127686E-003  4.530032575222965E-003  4.589307450605371E-003  4.649357929869926E-003 
 4.710194161690554E-003  4.771826427535222E-003  4.834265143403552E-003  4.897520861587136E-003 
 4.961604272452901E-003  5.026526206249809E-003  5.092297634939192E-003  5.158929674049041E-003 
 5.226433584552556E-003  5.294820774771282E-003  5.364102802303125E-003  5.434291375975642E-003 
 5.505398357824837E-003  5.577435765099886E-003  5.650415772294073E-003  5.724350713202314E-003 
 5.799253083005594E-003  5.875135540382687E-003  5.952010909649500E-003  6.029892182926400E-003 
 6.108792522333941E-003  6.188725262217274E-003  6.269703911399687E-003  6.351742155465628E-003 
 6.434853859073604E-003  6.519053068299336E-003  6.604354013009590E-003  6.690771109267049E-003 
 6.778318961766651E-003  6.867012366303846E-003  6.956866312275100E-003  7.047895985211145E-003 
 7.140116769343363E-003  7.233544250203769E-003  7.328194217258994E-003  7.424082666578749E-003 
 7.521225803539196E-003  7.619640045561679E-003  7.719342024887344E-003  7.820348591387995E-003 
 7.922676815413775E-003  8.026343990678099E-003  8.131367637180323E-003  8.237765504166671E-003 
 8.345555573129902E-003  8.454756060848230E-003  8.565385422463972E-003  8.677462354602554E-003 
 8.791005798532266E-003  8.906034943365372E-003  9.022569229301133E-003  9.140628350911232E-003 
 9.260232260468217E-003  9.381401171317468E-003  9.504155561293323E-003  9.628516176179838E-003 
 9.754504033216926E-003  9.882140424652292E-003  1.001144692133987E-002  1.014244537638538E-002 
 1.027515792883949E-002  1.040960700743944E-002  1.054581533439953E-002  1.068380592925119E-002 
 1.082360211273339E-002  1.096522751073385E-002  1.110870605828193E-002  1.125406200359366E-002 
 1.140131991216975E-002  1.155050467094724E-002  1.170164149250544E-002  1.185475591932691E-002 
 1.200987382811423E-002  1.216702143416315E-002  1.232622529579312E-002  1.248751231883570E-002 
 1.265090976118165E-002  1.281644523738762E-002  1.298414672334310E-002  1.315404256099834E-002 
 1.332616146315428E-002  1.350053251831507E-002  1.367718519560401E-002  1.385614934974403E-002 
 1.403745522610314E-002  1.422113346580596E-002  1.440721511091217E-002  1.459573160966269E-002 
 1.478671482179450E-002  1.498019702392500E-002  1.517621091500688E-002  1.537478962185423E-002 
 1.557596670474117E-002  1.577977616307351E-002  1.598625244113480E-002  1.619543043390747E-002 
 1.640734549297017E-002  1.662203343247224E-002  1.683953053518646E-002  1.705987355864084E-002 
 1.728309974133077E-002  1.750924680901243E-002  1.773835298107852E-002  1.797045697701740E-002 
 1.820559802295683E-002  1.844381585829322E-002  1.868515074240773E-002  1.892964346147018E-002 
 1.917733533533201E-002  1.942826822450941E-002  1.968248453725790E-002  1.994002723673942E-002 
 2.020093984828313E-002  2.046526646674140E-002  2.073305176394186E-002  2.100434099623709E-002 
 2.127918001215305E-002  2.155761526013759E-002  2.183969379641030E-002  2.212546329291517E-002 
 2.241497204537728E-002  2.270826898146487E-002  2.300540366905821E-002  2.330642632462670E-002 
 2.361138782171560E-002  2.392033969954376E-002  2.423333417171389E-002  2.455042413503669E-002 
 2.487166317847070E-002  2.519710559217884E-002  2.552680637670360E-002  2.586082125226230E-002 
 2.619920666816388E-002  2.654201981234903E-002  2.688931862105504E-002  2.724116178860722E-002 
 2.759760877733824E-002  2.795871982763761E-002  2.832455596813232E-002  2.869517902600081E-002 
 2.907065163742201E-002  2.945103725816089E-002  2.983640017429272E-002  3.022680551306752E-002 
 3.062231925391679E-002  3.102300823960401E-002  3.142894018752149E-002  3.184018370113459E-002 
 3.225680828157589E-002  3.267888433939110E-002  3.310648320643857E-002  3.353967714794457E-002 
 3.397853937471624E-002  3.442314405551448E-002  3.487356632958849E-002  3.532988231937466E-002 
 3.579216914336134E-002  3.626050492912208E-002  3.673496882651934E-002  3.721564102108106E-002 
 3.770260274755218E-002  3.819593630362347E-002  3.869572506384013E-002  3.920205349369212E-002 
 3.971500716388923E-002  4.023467276482258E-002  4.076113812121560E-002  4.129449220696656E-002 
 4.183482516018539E-002  4.238222829842722E-002  4.293679413412529E-002  4.349861639022578E-002 
 4.406779001602710E-002  4.464441120322674E-002  4.522857740217773E-002  4.582038733835809E-002 
 4.641994102905558E-002  4.702733980027093E-002  4.764268630384214E-002  4.826608453479291E-002 
 4.889763984890804E-002  4.953745898053873E-002  5.018565006064105E-002  5.084232263505033E-002 
 5.150758768299458E-002  5.218155763585030E-002  5.286434639614364E-002  5.355606935680018E-002 
 5.425684342064664E-002  5.496678702016778E-002  5.568602013752155E-002  5.641466432481668E-002 
 5.715284272465505E-002  5.790068009094319E-002  5.865830280997592E-002  5.942583892179597E-002 
 6.020341814183305E-002  6.099117188282606E-002  6.178923327703221E-002  6.259773719872647E-002 
 6.341682028699600E-002  6.424662096883219E-002  6.508727948252528E-002  6.593893790136494E-002 
 6.680174015765099E-002  6.767583206701829E-002  6.856136135307993E-002  6.945847767239299E-002 
 7.036733263975051E-002  7.128807985380520E-002  7.222087492302771E-002  7.316587549200490E-002 
 7.412324126808209E-002  7.509313404835406E-002  7.607571774700914E-002  7.707115842303103E-002 
 7.807962430826329E-002  7.910128583584063E-002  8.013631566899296E-002  8.118488873022552E-002 
 8.224718223088137E-002  8.332337570109050E-002  8.441365102011081E-002  8.551819244706617E-002 
 8.663718665208665E-002  8.777082274785629E-002  8.891929232157331E-002  9.008278946732920E-002 
 9.126151081891079E-002  9.245565558303202E-002  9.366542557300019E-002  9.489102524282296E-002 
 9.613266172176159E-002  9.739054484933624E-002  9.866488721078942E-002  9.995590417301312E-002 
 1.012638139209468E-001  1.025888374944508E-001  1.039311988256627E-001  1.052911247768424E-001 
 1.066688451787125E-001  1.080645928692999E-001  1.094786037332865E-001  1.109111167418737E-001 
 1.123623739931695E-001  1.138326207531033E-001  1.153221054968772E-001  1.168310799509577E-001 
 1.183597991356192E-001  1.199085214080425E-001  1.214775085059775E-001  1.230670255919783E-001 
 1.246773412982155E-001  1.263087277718764E-001  1.279614607211576E-001  1.296358194618613E-001 
 1.313320869646002E-001  1.330505499026189E-001  1.347914987002443E-001  1.365552275819669E-001 
 1.383420346221655E-001  1.401522217954826E-001  1.419860950278591E-001  1.438439642482358E-001 
 1.457261434409331E-001  1.476329506987142E-001  1.495647082765441E-001  1.515217426460513E-001 
 1.535043845507019E-001  1.555129690616970E-001  1.575478356345994E-001  1.596093281667031E-001 
 1.616977950551527E-001  1.638135892558230E-001  1.659570683429699E-001  1.681285945696605E-001 
 1.703285349289956E-001  1.725572612161321E-001  1.748151500911171E-001  1.771025831425445E-001 
 1.794199469520442E-001  1.817676331596157E-001  1.841460385298157E-001  1.865555650188126E-001 
 1.889966198423180E-001  1.914696155444070E-001  1.939749700672392E-001  1.965131068216920E-001 
 1.990844547589178E-001  2.016894484428381E-001  2.043285281235857E-001  2.070021398119078E-001 
 2.097107353545437E-001  2.124547725105859E-001  2.152347150288454E-001  2.180510327262241E-001 
 2.209042015671161E-001  2.237947037438464E-001  2.267230277581624E-001  2.296896685037922E-001 
 2.326951273500829E-001  2.357399122267326E-001  2.388245377096324E-001  2.419495251078306E-001 
 2.451154025516354E-001  2.483227050818697E-001  2.515719747402950E-001  2.548637606612170E-001 
 2.581986191642912E-001  2.615771138485418E-001  2.649998156876121E-001  2.684673031262583E-001 
 2.719801621781111E-001  2.755389865247110E-001  2.791443776158430E-001  2.827969447711828E-001 
 2.864973052832730E-001  2.902460845218473E-001  2.940439160395196E-001  2.978914416788556E-001 
 3.017893116808457E-001  3.057381847947976E-001  3.097387283896664E-001  3.137916185668410E-001 
 3.178975402744080E-001  3.220571874229082E-001  3.262712630026101E-001  3.305404792023166E-001 
 3.348655575297272E-001  3.392472289333722E-001  3.436862339261482E-001  3.481833227104641E-001 
 3.527392553050281E-001  3.573548016732923E-001  3.620307418535781E-001  3.667678660909055E-001 
 3.715669749705452E-001  3.764288795533203E-001  3.813544015126770E-001  3.863443732735498E-001 
 3.913996381530427E-001  3.965210505029526E-001  4.017094758541558E-001  4.069657910628859E-001 
 4.122908844589235E-001  4.176856559957269E-001  4.231510174025265E-001  4.286878923384069E-001 
 4.342972165484110E-001  4.399799380216812E-001  4.457370171516720E-001  4.515694268984585E-001 
 4.574781529531698E-001  4.634641939045726E-001  4.695285614078347E-001  4.756722803554982E-001 
 4.818963890506877E-001  4.882019393825869E-001  4.945899970042096E-001  5.010616415124981E-001 
 5.076179666307773E-001  5.142600803935969E-001  5.209891053339920E-001  5.278061786731928E-001 
 5.347124525128202E-001  5.417090940295887E-001  5.487972856725681E-001  5.559782253630170E-001 
 5.632531266968340E-001  5.706232191496599E-001  5.780897482846604E-001  5.856539759630306E-001 
 5.933171805572517E-001  6.010806571671392E-001  6.089457178387181E-001  6.169136917859614E-001 
 6.249859256154309E-001  6.331637835538562E-001  6.414486476786934E-001  6.498419181516979E-001 
 6.583450134555567E-001  6.669593706336144E-001  6.756864455327383E-001  6.845277130493549E-001 
 6.934846673787192E-001  7.025588222674310E-001  7.117517112692640E-001  7.210648880043394E-001 
 7.304999264216918E-001  7.400584210652699E-001  7.497419873434187E-001  7.595522618018870E-001 
 7.694909024004076E-001  7.795595887928968E-001  7.897600226113189E-001  8.000939277532680E-001 
 8.105630506733082E-001  8.211691606781305E-001  8.319140502255696E-001  8.427995352275327E-001 
 8.538274553568953E-001  8.649996743584035E-001  8.763180803636612E-001  8.877845862102222E-001 
 8.994011297648660E-001  9.111696742511017E-001  9.230922085809578E-001  9.351707476911127E-001 
 9.474073328834245E-001  9.598040321699145E-001  9.723629406222678E-001  9.850861807259040E-001 
 9.979759027386833E-001  1.011034285054305E+000  1.024263534570460E+000  1.037665887061803E+000 
 1.051243607557806E+000  1.064998990725547E+000  1.078934361257523E+000  1.093052074264518E+000 
 1.107354515673633E+000  1.121844102631508E+000  1.136523283912826E+000  1.151394540334160E+000 
 1.166460385173240E+000  1.181723364593704E+000  1.197186058075400E+000  1.212851078850329E+000 
 1.228721074344287E+000  1.244798726624284E+000  1.261086752851822E+000  1.277587905742101E+000 
 1.294304974029232E+000  1.311240782937546E+000  1.328398194659056E+000  1.345780108837179E+000 
 1.363389463056786E+000  1.381229233340645E+000  1.399302434652398E+000  1.417612121406083E+000 
 1.436161387982339E+000  1.454953369251367E+000  1.473991241102728E+000  1.493278220982078E+000 
 1.512817568434920E+000  1.532612585657480E+000  1.552666618054782E+000  1.572983054806032E+000 
 1.593565329437396E+000  1.614416920402275E+000  1.635541351669170E+000  1.656942193317244E+000 
 1.678623062139671E+000  1.700587622254885E+000  1.722839585725827E+000  1.745382713187278E+000 
 1.768220814481437E+000  1.791357749301780E+000  1.814797427845360E+000  1.838543811473639E+000 
 1.862600913381969E+000  1.886972799277831E+000  1.911663588067950E+000  1.936677452554395E+000 
 1.962018620139802E+000  1.987691373541807E+000  2.013700051516838E+000  2.040049049593377E+000 
 2.066742820814811E+000  2.093785876492011E+000  2.121182786965750E+000  2.148938182379107E+000 
 2.177056753459970E+000  2.205543252313771E+000  2.234402493226618E+000  2.263639353478915E+000 
 2.293258774169631E+000  2.323265761051359E+000  2.353665385376301E+000  2.384462784753325E+000 
 2.415663164016223E+000  2.447271796103351E+000  2.479294022948765E+000  2.511735256385017E+000 
 2.544600979057771E+000  2.577896745352382E+000  2.611628182332602E+000  2.645800990691563E+000 
 2.680420945715214E+000  2.715493898258352E+000  2.751025775733438E+000  2.787022583112326E+000 
 2.823490403941142E+000  2.860435401368406E+000  2.897863819186614E+000  2.935781982887461E+000 
 2.974196300730861E+000  3.013113264827958E+000  3.052539452238313E+000  3.092481526081436E+000 
 3.132946236662871E+000  3.173940422615018E+000  3.215471012052872E+000  3.257545023744894E+000 
 3.300169568299202E+000  3.343351849365276E+000  3.387099164851393E+000  3.431418908157994E+000 
 3.476318569427188E+000  3.521805736808584E+000  3.567888097741739E+000  3.614573440255330E+000 
 3.661869654283361E+000  3.709784732998568E+000  3.758326774163299E+000  3.807503981498045E+000 
 3.857324666067891E+000  3.907797247687109E+000  3.958930256342123E+000  4.010732333633094E+000 
 4.063212234234380E+000  4.116378827374091E+000  4.170241098333007E+000  4.224808149963119E+000 
 4.280089204226027E+000  4.336093603751475E+000  4.392830813416287E+000  4.450310421943922E+000 
 4.508542143525034E+000  4.567535819459168E+000  4.627301419817968E+000  4.687849045130141E+000 
 4.749188928088477E+000  4.811331435279189E+000  4.874287068933897E+000  4.938066468704529E+000 
 5.002680413461449E+000  5.068139823115106E+000  5.134455760461534E+000  5.201639433051981E+000 
 5.269702195087018E+000  5.338655549335426E+000  5.408511149078189E+000  5.479280800077926E+000 
 5.550976462574103E+000  5.623610253304308E+000  5.697194447552057E+000  5.771741481221317E+000 
 5.847263952938206E+000  5.923774626180195E+000  6.001286431433164E+000  6.079812468376690E+000 
 6.159366008097911E+000  6.239960495334389E+000  6.321609550746288E+000  6.404326973218305E+000 
 6.488126742191715E+000  6.573023020026923E+000  6.659030154396947E+000  6.746162680712199E+000 
 6.834435324577013E+000  6.923863004278297E+000  7.014460833306780E+000  7.106244122911174E+000 
 7.199228384685890E+000  7.293429333192477E+000  7.388862888615441E+000  7.485545179452791E+000 
 7.583492545241788E+000  7.682721539320378E+000  7.783248931624733E+000  7.885091711523419E+000 
 7.988267090688632E+000  8.092792506005020E+000  8.198685622516551E+000  8.305964336411956E+000 
 8.414646778049210E+000  8.524751315019630E+000  8.636296555252018E+000  8.749301350157467E+000 
 8.863784797815292E+000  8.979766246200597E+000  9.097265296454221E+000  9.216301806195320E+000 
 9.336895892877353E+000  9.459067937187999E+000  9.582838586493526E+000  9.708228758328255E+000 
 9.835259643929664E+000  9.963952711819767E+000  1.009432971143334E+001  1.022641267679362E+001 
 1.036022393023614E+001  1.049578608618120E+001  1.063312205495581E+001  1.077225504666557E+001 
 1.091320857511722E+001  1.105600646179256E+001  1.120067283987432E+001  1.134723215832470E+001 
 1.149570918601733E+001  1.164612901592331E+001  1.179851706935189E+001  1.195289910024680E+001 
 1.210930119953871E+001  1.226774979955465E+001  1.242827167848515E+001  1.259089396490980E+001 
 1.275564414238206E+001  1.292255005407406E+001  1.309163990748211E+001  1.326294227919390E+001 
 1.343648611971795E+001  1.361230075837638E+001  1.379041590826156E+001  1.397086167125777E+001 
 1.415366854312844E+001  1.433886741866998E+001  1.452648959693316E+001  1.471656678651268E+001 
 1.490913111090597E+001  1.510421511394217E+001  1.530185176528213E+001  1.550207446599031E+001 
 1.570491705417967E+001  1.591041381073042E+001  1.611859946508350E+001  1.632950920111001E+001 
 1.654317866305731E+001  1.675964396157304E+001  1.697894167980785E+001  1.720110887959807E+001 
 1.742618310772924E+001  1.765420240228162E+001  1.788520529905874E+001  1.811923083809987E+001 
 1.835631857027817E+001  1.859650856398466E+001  1.883984141189995E+001  1.908635823785450E+001 
 1.933610070377863E+001  1.958911101674348E+001  1.984543193609414E+001  2.010510678067605E+001 
 2.036817943615600E+001  2.063469436243889E+001  2.090469660118160E+001  2.117823178340511E+001 
 2.145534613720626E+001  2.173608649557040E+001  2.202050030428628E+001  2.230863562996449E+001 
 2.260054116816093E+001  2.289626625160622E+001  2.319586085854336E+001  2.349937562117399E+001 
 2.380686183421538E+001  2.411837146356939E+001  2.443395715510480E+001  2.475367224355460E+001 
 2.507757076152970E+001  2.540570744865054E+001  2.573813776079825E+001  2.607491787948678E+001 
 2.641610472135778E+001  2.676175594779957E+001  2.711192997469211E+001  2.746668598227939E+001 
 2.782608392517104E+001  2.819018454247487E+001  2.855904936806169E+001  2.893274074096502E+001 
 2.931132181591629E+001  2.969485657401823E+001  3.008340983355782E+001  3.047704726096070E+001 
 3.087583538188900E+001  3.127984159248432E+001  3.168913417075781E+001  3.210378228812937E+001 
 3.252385602111773E+001  3.294942636318358E+001  3.338056523672764E+001  3.381734550524568E+001 
 3.425984098564265E+001  3.470812646070793E+001  3.516227769175377E+001  3.562237143141920E+001 
 3.608848543664118E+001  3.656069848179603E+001  3.703909037201230E+001  3.752374195665806E+001 
 3.801473514300464E+001  3.851215291006913E+001  3.901607932263806E+001  3.952659954547457E+001 
 4.004379985771140E+001  4.056776766743229E+001  4.109859152644420E+001  4.163636114524269E+001 
 4.218116740817329E+001  4.273310238879115E+001  4.329225936542161E+001  4.385873283692461E+001 
 4.443261853866506E+001  4.501401345869257E+001  4.560301585413222E+001  4.619972526779082E+001 
 4.680424254497948E+001  4.741666985055686E+001  4.803711068619526E+001  4.866566990787258E+001 
 4.930245374359335E+001  4.994756981134139E+001  5.060112713726760E+001  5.126323617411558E+001 
 5.193400881988845E+001  5.261355843675985E+001  5.330199987023240E+001  5.399944946854696E+001 
 5.470602510234561E+001  5.542184618459218E+001  5.614703369075331E+001  5.688171017924365E+001 
 5.762599981213815E+001  5.838002837615636E+001  5.914392330392026E+001  5.991781369549078E+001 
 6.070183034018602E+001  6.149610573868499E+001  6.230077412542047E+001  6.311597149126503E+001 
 6.394183560651371E+001  6.477850604416767E+001  6.562612420352218E+001  6.648483333406364E+001 
 6.735477855967888E+001  6.823610690318158E+001  6.912896731115946E+001  7.003351067914656E+001 
 7.094988987712496E+001  7.187825977536033E+001  7.281877727057481E+001  7.377160131246377E+001 
 7.473689293055807E+001  7.571481526143867E+001  7.670553357630705E+001  7.770921530891640E+001 
 7.872603008386842E+001  7.975614974528017E+001  8.079974838582623E+001  8.185700237616072E+001 
 8.292809039472435E+001  8.401319345794158E+001  8.511249495081272E+001  8.622618065790653E+001 
 8.735443879475815E+001  8.849746003967813E+001  8.965543756597732E+001  9.082856707461394E+001 
 9.201704682726678E+001  9.322107767984291E+001  9.444086311642211E+001  9.567660928364637E+001 
 9.692852502555917E+001  9.819682191890053E+001  9.948171430886416E+001  1.007834193453220E+002 
 1.021021570195236E+002  1.034381502012745E+002  1.047916246766021E+002  1.061628091859144E+002 
 1.075519354626568E+002  1.089592382724764E+002  1.103849554528976E+002  1.118293279535172E+002 
 1.132925998767255E+002  1.147750185189606E+002  1.162768344125008E+002  1.177983013678069E+002
    </PP_R>
    <PP_RAB type="real" size="1144" columns="4">
 5.393872466880501E-007  5.464450572665359E-007  5.535952183602917E-007  5.608389383635607E-007 