<PP_INFO>
Generated using Fritz-Haber code                                                
Author: unknown    Generation date: as well                                     
oxygen, fhi98PP : Trouiller-Martins-type, LDA Ceperley/Alder Perdew/Wang (1992),
    1        The Pseudo was generated with a Scalar-Relativistic Calculation
nl pn  l   occ               Rcut            Rcut US             E pseu
2s  0  0  2.00      0.00000000000      0.00000000000      0.00000000000
2p  0  1  4.00      0.00000000000      0.00000000000      0.00000000000
3s  0  2  2.00      0.00000000000      0.00000000000      0.00000000000
3d  0  3  0.00      0.00000000000      0.00000000000      0.00000000000
</PP_INFO>


<PP_HEADER>
   0                   Version Number
   O                   Element
   NC                  Norm - Conserving pseudopotential
    F                  Nonlinear Core Correction
SLA  PW   NOGX NOGC    PW   Exchange-Correlation functional
    6.00000000000      Z valence
    0.00000000000      Total energy
    0.00000    0.00000 Suggested cutoff for wfc and rho
    3                  Max angular momentum component
  473                  Number of points in mesh
    4    3             Number of Wavefunctions, Number of Projectors
 Wavefunctions         nl  l   occ
                       2s  0  2.00
                       2p  1  4.00
                       3s  2  2.00
                       3d  3  0.00
</PP_HEADER>


<PP_MESH>
  <PP_R>
  7.81250000000E-04  8.00546875000E-04  8.20320382813E-04  8.40582296268E-04
  8.61344678986E-04  8.82619892557E-04  9.04420603903E-04  9.26759792819E-04
  9.49650759702E-04  9.73107133467E-04  9.97142879663E-04  1.02177230879E-03
  1.04701008482E-03  1.07287123391E-03  1.09937115339E-03  1.12652562088E-03
  1.15435080372E-03  1.18286326857E-03  1.21207999130E-03  1.24201836709E-03
  1.27269622075E-03  1.30413181741E-03  1.33634387330E-03  1.36935156697E-03
  1.40317455067E-03  1.43783296207E-03  1.47334743623E-03  1.50973911791E-03
  1.54702967412E-03  1.58524130707E-03  1.62439676736E-03  1.66451936751E-03
  1.70563299589E-03  1.74776213089E-03  1.79093185552E-03  1.83516787235E-03
  1.88049651880E-03  1.92694478281E-03  1.97454031895E-03  2.02331146483E-03
  2.07328725801E-03  2.12449745328E-03  2.17697254038E-03  2.23074376212E-03
  2.28584313305E-03  2.34230345843E-03  2.40015835386E-03  2.45944226520E-03
  2.52019048915E-03  2.58243919423E-03  2.64622544233E-03  2.71158721075E-03
  2.77856341486E-03  2.84719393121E-03  2.91751962131E-03  2.98958235595E-03
  3.06342504014E-03  3.13909163864E-03  3.21662720211E-03  3.29607789400E-03
  3.37749101798E-03  3.46091504613E-03  3.54639964777E-03  3.63399571907E-03
  3.72375541333E-03  3.81573217204E-03  3.90998075669E-03  4.00655728138E-03
  4.10551924623E-03  4.20692557161E-03  4.31083663323E-03  4.41731429807E-03
  4.52642196123E-03  4.63822458367E-03  4.75278873089E-03  4.87018261254E-03
  4.99047612307E-03  5.11374088331E-03  5.24005028313E-03  5.36947952512E-03
  5.50210566939E-03  5.63800767943E-03  5.77726646911E-03  5.91996495090E-03
  6.06618808518E-03  6.21602293089E-03  6.36955869728E-03  6.52688679710E-03
  6.68810090099E-03  6.85329699325E-03  7.02257342898E-03  7.19603099268E-03
  7.37377295820E-03  7.55590515026E-03  7.74253600747E-03  7.93377664686E-03
  8.12974093004E-03  8.33054553101E-03  8.53631000562E-03  8.74715686276E-03
  8.96321163727E-03  9.18460296471E-03  9.41146265794E-03  9.64392578559E-03
  9.88213075250E-03  1.01262193821E-02  1.03763370008E-02  1.06326325247E-02
  1.08952585481E-02  1.11643714342E-02  1.14401314087E-02  1.17227026545E-02
  1.20122534100E-02  1.23089560693E-02  1.26129872842E-02  1.29245280701E-02
  1.32437639134E-02  1.35708848821E-02  1.39060857387E-02  1.42495660564E-02
  1.46015303380E-02  1.49621881374E-02  1.53317541843E-02  1.57104485127E-02
  1.60984965910E-02  1.64961294568E-02  1.69035838543E-02  1.73211023755E-02
  1.77489336042E-02  1.81873322642E-02  1.86365593712E-02  1.90968823876E-02
  1.95685753826E-02  2.00519191946E-02  2.05472015987E-02  2.10547174782E-02
  2.15747689999E-02  2.21076657942E-02  2.26537251393E-02  2.32132721502E-02
  2.37866399723E-02  2.43741699796E-02  2.49762119781E-02  2.55931244140E-02
  2.62252745870E-02  2.68730388693E-02  2.75368029294E-02  2.82169619618E-02
  2.89139209222E-02  2.96280947690E-02  3.03599087098E-02  3.11097984549E-02
  3.18782104767E-02  3.26656022755E-02  3.34724426517E-02  3.42992119852E-02
  3.51464025213E-02  3.60145186635E-02  3.69040772745E-02  3.78156079832E-02
  3.87496535004E-02  3.97067699419E-02  4.06875271594E-02  4.16925090803E-02
  4.27223140545E-02  4.37775552117E-02  4.48588608254E-02  4.59668746878E-02
  4.71022564926E-02  4.82656822280E-02  4.94578445790E-02  5.06794533401E-02
  5.19312358376E-02  5.32139373628E-02  5.45283216156E-02  5.58751711595E-02
  5.72552878872E-02  5.86694934980E-02  6.01186299874E-02  6.16035601481E-02
  6.31251680837E-02  6.46843597354E-02  6.62820634209E-02  6.79192303874E-02
  6.95968353779E-02  7.13158772118E-02  7.30773793789E-02  7.48823906496E-02
  7.67319856986E-02  7.86272657454E-02  8.05693592093E-02  8.25594223817E-02
  8.45986401146E-02  8.66882265254E-02  8.88294257206E-02  9.10235125359E-02
  9.32717932955E-02  9.55756065899E-02  9.79363240727E-02  1.00355351277E-01
  1.02834128454E-01  1.05374131427E-01  1.07976872473E-01  1.10643901223E-01
  1.13376805583E-01  1.16177212681E-01  1.19046789834E-01  1.21987245543E-01
  1.25000330508E-01  1.28087838672E-01  1.31251608287E-01  1.34493523012E-01
  1.37815513030E-01  1.41219556202E-01  1.44707679240E-01  1.48281958917E-01
  1.51944523302E-01  1.55697553028E-01  1.59543282588E-01  1.63484001668E-01
  1.67522056509E-01  1.71659851305E-01  1.75899849632E-01  1.80244575918E-01
  1.84696616943E-01  1.89258623381E-01  1.93933311379E-01  1.98723464170E-01
  2.03631933735E-01  2.08661642498E-01  2.13815585068E-01  2.19096830019E-01
  2.24508521721E-01  2.30053882207E-01  2.35736213098E-01  2.41558897561E-01
  2.47525402331E-01  2.53639279769E-01  2.59904169979E-01  2.66323802977E-01
  2.72902000911E-01  2.79642680333E-01  2.86549854538E-01  2.93627635945E-01
  3.00880238552E-01  3.08311980445E-01  3.15927286362E-01  3.23730690335E-01
  3.31726838386E-01  3.39920491294E-01  3.48316527429E-01  3.56919945657E-01
  3.65735868314E-01  3.74769544262E-01  3.84026352005E-01  3.93511802900E-01
  4.03231544431E-01  4.13191363579E-01  4.23397190259E-01  4.33855100858E-01
  4.44571321850E-01  4.55552233499E-01  4.66804373667E-01  4.78334441696E-01
  4.90149302406E-01  5.02255990176E-01  5.14661713133E-01  5.27373857447E-01
  5.40399991726E-01  5.53747871522E-01  5.67425443949E-01  5.81440852414E-01
  5.95802441469E-01  6.10518761773E-01  6.25598575189E-01  6.41050859996E-01
  6.56884816238E-01  6.73109871199E-01  6.89735685018E-01  7.06772156438E-01
  7.24229428702E-01  7.42117895590E-01  7.60448207612E-01  7.79231278340E-01
  7.98478290915E-01  8.18200704700E-01  8.38410262106E-01  8.59118995580E-01
  8.80339234771E-01  9.02083613870E-01  9.24365079133E-01  9.47196896587E-01
  9.70592659933E-01  9.94566298633E-01  1.01913208621E+00  1.04430464874E+00
  1.07009897356E+00  1.09653041821E+00  1.12361471954E+00  1.15136800311E+00
  1.17980679279E+00  1.20894802057E+00  1.23880903668E+00  1.26940761988E+00
  1.30076198810E+00  1.33289080920E+00  1.36581321219E+00  1.39954879853E+00
  1.43411765385E+00  1.46954035990E+00  1.50583800679E+00  1.54303220556E+00
  1.58114510104E+00  1.62019938503E+00  1.66021830985E+00  1.70122570210E+00
  1.74324597694E+00  1.78630415257E+00  1.83042586514E+00  1.87563738401E+00
  1.92196562739E+00  1.96943817839E+00  2.01808330140E+00  2.06792995894E+00
  2.11900782893E+00  2.17134732230E+00  2.22497960116E+00  2.27993659731E+00
  2.33625103126E+00  2.39395643174E+00  2.45308715560E+00  2.51367840834E+00
  2.57576626503E+00  2.63938769178E+00  2.70458056776E+00  2.77138370779E+00
  2.83983688537E+00  2.90998085644E+00  2.98185738359E+00  3.05550926097E+00
  3.13098033971E+00  3.20831555410E+00  3.28756094829E+00  3.36876370371E+00
  3.45197216719E+00  3.53723587972E+00  3.62460560595E+00  3.71413336442E+00
  3.80587245852E+00  3.89987750825E+00  3.99620448270E+00  4.09491073342E+00
  4.19605502854E+00  4.29969758774E+00  4.40590011816E+00  4.51472585108E+00
  4.62623957960E+00  4.74050769722E+00  4.85759823734E+00  4.97758091380E+00
  5.10052716237E+00  5.22651018328E+00  5.35560498481E+00  5.48788842793E+00
  5.62343927210E+00  5.76233822212E+00  5.90466797621E+00  6.05051327522E+00
  6.19996095312E+00  6.35309998866E+00  6.51002155838E+00  6.67081909087E+00
  6.83558832242E+00  7.00442735398E+00  7.17743670963E+00  7.35471939635E+00
  7.53638096544E+00  7.72252957529E+00  7.91327605580E+00  8.10873397438E+00
  8.30901970354E+00  8.51425249022E+00  8.72455452673E+00  8.94005102354E+00
  9.16087028382E+00  9.38714377983E+00  9.61900623119E+00  9.85659568510E+00
  1.01000535985E+01  1.03495249224E+01  1.06051581880E+01  1.08671055952E+01
  1.11355231034E+01  1.14105705241E+01  1.16924116160E+01  1.19812141830E+01
  1.22771501733E+01  1.25803957826E+01  1.28911315584E+01  1.32095425079E+01
  1.35358182078E+01  1.38701529176E+01  1.42127456946E+01  1.45638005133E+01
  1.49235263860E+01  1.52921374877E+01  1.56698532836E+01  1.60568986597E+01
  1.64535040566E+01  1.68599056068E+01  1.72763452753E+01  1.77030710036E+01
  1.81403368574E+01  1.85884031778E+01  1.90475367363E+01  1.95180108937E+01
  2.00001057627E+01  2.04941083751E+01  2.10003128519E+01  2.15190205794E+01
  2.20505403877E+01  2.25951887353E+01  2.31532898970E+01  2.37251761575E+01
  2.43111880086E+01  2.49116743524E+01  2.55269927089E+01  2.61575094288E+01
  2.68035999117E+01  2.74656488295E+01  2.81440503556E+01  2.88392083994E+01
  2.95515368469E+01  3.02814598070E+01  3.10294118642E+01  3.17958383373E+01
  3.25811955442E+01  3.33859510741E+01  3.42105840657E+01  3.50555854921E+01
  3.59214584537E+01  3.68087184775E+01  3.77178938239E+01  3.86495258014E+01
  3.96041690887E+01  4.05823920652E+01  4.15847771492E+01  4.26119211448E+01
  4.36644355970E+01  4.47429471563E+01  4.58480979510E+01  4.69805459704E+01
  4.81409654559E+01  4.93300473027E+01  5.05484994710E+01  5.17970474080E+01
  5.30764344790E+01  5.43874224106E+01  5.57307917441E+01  5.71073423002E+01
  5.85178936550E+01  5.99632856283E+01  6.14443787833E+01  6.29620549393E+01
  6.45172176963E+01  6.61107929734E+01  6.77437295598E+01  6.94169996799E+01
  7.11315995720E+01  7.28885500815E+01  7.46888972685E+01  7.65337130310E+01
  7.84240957429E+01
  </PP_R>
  <PP_RAB>
  1.90624115809E-05  1.95332531469E-05  2.00157244997E-05  2.05101128948E-05
  2.10167126833E-05  2.15358254866E-05  2.20677603761E-05  2.26128340574E-05
  2.31713710586E-05  2.37437039238E-05  2.43301734107E-05  2.49311286939E-05
  2.55469275727E-05  2.61779366837E-05  2.68245317198E-05  2.74870976533E-05
  2.81660289653E-05  2.88617298807E-05  2.95746146088E-05  3.03051075896E-05
  3.10536437471E-05  3.18206687477E-05  3.26066392657E-05  3.34120232556E-05
  3.42373002300E-05  3.50829615457E-05  3.59495106959E-05  3.68374636100E-05
  3.77473489612E-05  3.86797084806E-05  3.96350972800E-05  4.06140841828E-05
  4.16172520622E-05  4.26451981881E-05  4.36985345833E-05  4.47778883876E-05
  4.58839022307E-05  4.70172346158E-05  4.81785603108E-05  4.93685707505E-05
  5.05879744481E-05  5.18374974169E-05  5.31178836031E-05  5.44298953281E-05
  5.57743137427E-05  5.71519392922E-05  5.85635921927E-05  6.00101129198E-05
  6.14923627090E-05  6.30112240679E-05  6.45676013023E-05  6.61624210545E-05
  6.77966328546E-05  6.94712096861E-05  7.11871485653E-05  7.29454711349E-05
  7.47472242719E-05  7.65934807114E-05  7.84853396850E-05  8.04239275752E-05
  8.24103985863E-05  8.44459354314E-05  8.65317500366E-05  8.86690842625E-05
  9.08592106437E-05  9.31034331466E-05  9.54030879454E-05  9.77595442176E-05
  1.00174204960E-04  1.02648507822E-04  1.05183925966E-04  1.07781968937E-04
  1.10444183570E-04  1.13172154904E-04  1.15967507130E-04  1.18831904556E-04
  1.21767052599E-04  1.24774698798E-04  1.27856633858E-04  1.31014692714E-04
  1.34250755624E-04  1.37566749288E-04  1.40964647996E-04  1.44446474801E-04
  1.48014302729E-04  1.51670256006E-04  1.55416511330E-04  1.59255299159E-04
  1.63188905049E-04  1.67219671003E-04  1.71349996877E-04  1.75582341800E-04
  1.79919225642E-04  1.84363230516E-04  1.88917002310E-04  1.93583252267E-04
  1.98364758598E-04  2.03264368135E-04  2.08284998028E-04  2.13429637479E-04
  2.18701349525E-04  2.24103272858E-04  2.29638623698E-04  2.35310697703E-04
  2.41122871936E-04  2.47078606873E-04  2.53181448463E-04  2.59435030240E-04
  2.65843075487E-04  2.72409399451E-04  2.79137911618E-04  2.86032618035E-04
  2.93097623700E-04  3.00337135006E-04  3.07755462240E-04  3.15357022158E-04
  3.23146340605E-04  3.31128055218E-04  3.39306918182E-04  3.47687799061E-04
  3.56275687698E-04  3.65075697184E-04  3.74093066904E-04  3.83333165657E-04
  3.92801494848E-04  4.02503691771E-04  4.12445532958E-04  4.22632937622E-04
  4.33071971181E-04  4.43768848870E-04  4.54729939437E-04  4.65961768941E-04
  4.77471024633E-04  4.89264558942E-04  5.01349393548E-04  5.13732723568E-04
  5.26421921841E-04  5.39424543310E-04  5.52748329530E-04  5.66401213269E-04
  5.80391323237E-04  5.94726988921E-04  6.09416745547E-04  6.24469339162E-04
  6.39893731840E-04  6.55699107016E-04  6.71894874959E-04  6.88490678371E-04
  7.05496398127E-04  7.22922159160E-04  7.40778336492E-04  7.59075561403E-04
  7.77824727770E-04  7.97036998545E-04  8.16723812410E-04  8.36896890576E-04
  8.57568243773E-04  8.78750179394E-04  9.00455308826E-04  9.22696554953E-04
  9.45487159861E-04  9.68840692709E-04  9.92771057819E-04  1.01729250295E-03
  1.04241962777E-03  1.06816739258E-03  1.09455112717E-03  1.12158654001E-03
  1.14928972755E-03  1.17767718382E-03  1.20676581026E-03  1.23657292578E-03
  1.26711627704E-03  1.29841404909E-03  1.33048487610E-03  1.36334785254E-03
  1.39702254450E-03  1.43152900135E-03  1.46688776768E-03  1.50311989554E-03
  1.54024695696E-03  1.57829105680E-03  1.61727484590E-03  1.65722153459E-03
  1.69815490650E-03  1.74009933269E-03  1.78307978621E-03  1.82712185693E-03
  1.87225176679E-03  1.91849638543E-03  1.96588324615E-03  2.01444056233E-03
  2.06419724422E-03  2.11518291615E-03  2.16742793418E-03  2.22096340416E-03
  2.27582120024E-03  2.33203398388E-03  2.38963522329E-03  2.44865921330E-03
  2.50914109587E-03  2.57111688094E-03  2.63462346790E-03  2.69969866755E-03
  2.76638122464E-03  2.83471084089E-03  2.90472819866E-03  2.97647498517E-03
  3.04999391730E-03  3.12532876706E-03  3.20252438761E-03  3.28162673998E-03
  3.36268292046E-03  3.44574118859E-03  3.53085099595E-03  3.61806301555E-03
  3.70742917204E-03  3.79900267258E-03  3.89283803860E-03  3.98899113815E-03
  4.08751921926E-03  4.18848094398E-03  4.29193642330E-03  4.39794725295E-03
  4.50657655010E-03  4.61788899089E-03  4.73195084896E-03  4.84883003493E-03
  4.96859613679E-03  5.09132046137E-03  5.21707607677E-03  5.34593785586E-03
  5.47798252090E-03  5.61328868917E-03  5.75193691979E-03  5.89400976171E-03
  6.03959180283E-03  6.18876972036E-03  6.34163233245E-03  6.49827065106E-03
  6.65877793614E-03  6.82324975116E-03  6.99178402002E-03  7.16448108531E-03
  7.34144376812E-03  7.52277742919E-03  7.70859003169E-03  7.89899220548E-03
  8.09409731295E-03  8.29402151658E-03  8.49888384804E-03  8.70880627909E-03
  8.92391379418E-03  9.14433446490E-03  9.37019952618E-03  9.60164345448E-03
  9.83880404780E-03  1.00818225078E-02  1.03308435237E-02  1.05860153588E-02
  1.08474899381E-02  1.11154229396E-02  1.13899738862E-02  1.16713062412E-02
  1.19595875053E-02  1.22549893167E-02  1.25576875529E-02  1.28678624354E-02
  1.31856986376E-02  1.35113853939E-02  1.38451166131E-02  1.41870909935E-02
  1.45375121410E-02  1.48965886909E-02  1.52645344316E-02  1.56415684320E-02
  1.60279151723E-02  1.64238046771E-02  1.68294726526E-02  1.72451606271E-02
  1.76711160946E-02  1.81075926621E-02  1.85548502009E-02  1.90131550008E-02
  1.94827799294E-02  1.99640045936E-02  2.04571155071E-02  2.09624062601E-02
  2.14801776947E-02  2.20107380838E-02  2.25544033145E-02  2.31114970763E-02
  2.36823510541E-02  2.42673051252E-02  2.48667075617E-02  2.54809152385E-02
  2.61102938449E-02  2.67552181029E-02  2.74160719900E-02  2.80932489682E-02
  2.87871522177E-02  2.94981948775E-02  3.02268002909E-02  3.09734022581E-02
  3.17384452939E-02  3.25223848927E-02  3.33256877995E-02  3.41488322882E-02
  3.49923084457E-02  3.58566184643E-02  3.67422769403E-02  3.76498111808E-02
  3.85797615169E-02  3.95326816264E-02  4.05091388626E-02  4.15097145925E-02
  4.25350045429E-02  4.35856191551E-02  4.46621839483E-02  4.57653398918E-02
  4.68957437871E-02  4.80540686587E-02  4.92410041545E-02  5.04572569571E-02
  5.17035512040E-02  5.29806289187E-02  5.42892504530E-02  5.56301949392E-02
  5.70042607542E-02  5.84122659948E-02  5.98550489649E-02  6.13334686743E-02
  6.28484053506E-02  6.44007609627E-02  6.59914597585E-02  6.76214488146E-02
  6.92916986003E-02  7.10032035557E-02  7.27569826835E-02  7.45540801558E-02
  7.63955659357E-02  7.82825364143E-02  8.02161150637E-02  8.21974531058E-02
  8.42277301975E-02  8.63081551334E-02  8.84399665652E-02  9.06244337393E-02
  9.28628572527E-02  9.51565698268E-02  9.75069371016E-02  9.99153584480E-02
  1.02383267802E-01  1.04912134516E-01  1.07503464239E-01  1.10158799806E-01
  1.12879722161E-01  1.15667851298E-01  1.18524847225E-01  1.21452410952E-01
  1.24452285502E-01  1.27526256954E-01  1.30676155501E-01  1.33903856542E-01
  1.37211281798E-01  1.40600400459E-01  1.44073230350E-01  1.47631839140E-01
  1.51278345566E-01  1.55014920702E-01  1.58843789243E-01  1.62767230838E-01
  1.66787581439E-01  1.70907234701E-01  1.75128643398E-01  1.79454320890E-01
  1.83886842616E-01  1.88428847628E-01  1.93083040165E-01  1.97852191257E-01
  2.02739140381E-01  2.07746797148E-01  2.12878143038E-01  2.18136233171E-01
  2.23524198130E-01  2.29045245824E-01  2.34702663396E-01  2.40499819182E-01
  2.46440164716E-01  2.52527236784E-01  2.58764659533E-01  2.65156146623E-01
  2.71705503445E-01  2.78416629380E-01  2.85293520126E-01  2.92340270073E-01
  2.99561074743E-01  3.06960233290E-01  3.14542151052E-01  3.22311342183E-01
  3.30272432335E-01  3.38430161413E-01  3.46789386400E-01  3.55355084244E-01
  3.64132354825E-01  3.73126423989E-01  3.82342646662E-01  3.91786510035E-01
  4.01463636832E-01  4.11379788662E-01  4.21540869442E-01  4.31952928917E-01
  4.42622166262E-01  4.53554933768E-01  4.64757740632E-01  4.76237256826E-01
  4.88000317070E-01  5.00053924901E-01  5.12405256846E-01  5.25061666690E-01
  5.38030689858E-01  5.51320047897E-01  5.64937653080E-01  5.78891613111E-01
  5.93190235955E-01  6.07842034783E-01  6.22855733042E-01  6.38240269648E-01
  6.54004804309E-01  6.70158722975E-01  6.86711643433E-01  7.03673421025E-01
  7.21054154525E-01  7.38864192142E-01  7.57114137687E-01  7.75814856888E-01
  7.94977483853E-01  8.14613427705E-01  8.34734379369E-01  8.55352318539E-01
  8.76479520807E-01  8.98128564971E-01  9.20312340526E-01  9.43044055337E-01
  9.66337243504E-01  9.90205773418E-01  1.01466385602E+00  1.03972605327E+00
  1.06540728678E+00  1.09172284676E+00  1.11868840108E+00  1.14632000459E+00
  1.17463410870E+00  1.20364757118E+00  1.23337766619E+00  1.26384209455E+00
  1.29505899428E+00  1.32704695144E+00  1.35982501114E+00  1.39341268892E+00
  1.42782998233E+00  1.46309738290E+00  1.49923588826E+00  1.53626701470E+00
  1.57421280996E+00  1.61309586636E+00  1.65293933426E+00  1.69376693582E+00
  1.73560297913E+00  1.77847237272E+00  1.82240064033E+00  1.86741393614E+00
  1.91353906036E+00
  </PP_RAB>
</PP_MESH>


<PP_LOCAL>
 -2.31086018386E+01 -2.31086024737E+01 -2.31086030699E+01 -2.31086036269E+01
 -2.31086041445E+01 -2.31086046223E+01 -2.31086050599E+01 -2.31086054569E+01
 -2.31086058126E+01 -2.31086061266E+01 -2.31086063982E+01 -2.31086066265E+01
 -2.31086068110E+01 -2.31086069506E+01 -2.31086070445E+01 -2.31086070916E+01
 -2.31086070909E+01 -2.31086070411E+01 -2.31086069410E+01 -2.31086067892E+01
 -2.31086065843E+01 -2.31086063247E+01 -2.31086060088E+01 -2.31086056347E+01
 -2.31086052005E+01 -2.31086047044E+01 -2.31086041441E+01 -2.31086035174E+01
 -2.31086028218E+01 -2.31086020549E+01 -2.31086012140E+01 -2.31086002962E+01
 -2.31085992985E+01 -2.31085982178E+01 -2.31085970506E+01 -2.31085957935E+01
 -2.31085944427E+01 -2.31085929943E+01 -2.31085914440E+01 -2.31085897876E+01
 -2.31085880204E+01 -2.31085861376E+01 -2.31085841340E+01 -2.31085820041E+01
 -2.31085797424E+01 -2.31085773429E+01 -2.31085747992E+01 -2.31085721048E+01
 -2.31085692526E+01 -2.31085662353E+01 -2.31085630453E+01 -2.31085596743E+01
 -2.31085561139E+01 -2.31085523551E+01 -2.31085483885E+01 -2.31085442041E+01
 -2.31085397916E+01 -2.31085351400E+01 -2.31085302377E+01 -2.31085250727E+01
 -2.31085196323E+01 -2.31085139031E+01 -2.31085078711E+01 -2.31085015215E+01
 -2.31084948388E+01 -2.31084878068E+01 -2.31084804084E+01 -2.31084726255E+01
 -2.31084644394E+01 -2.31084558301E+01 -2.31084467770E+01 -2.31084372581E+01
 -2.31084272504E+01 -2.31084167299E+01 -2.31084056712E+01 -2.31083940476E+01
 -2.31083818313E+01 -2.31083689929E+01 -2.31083555015E+01 -2.31083413249E+01
 -2.31083264289E+01 -2.31083107780E+01 -2.31082943346E+01 -2.31082770594E+01
 -2.31082589110E+01 -2.31082398460E+01 -2.31082198189E+01 -2.31081987818E+01
 -2.31081766844E+01 -2.31081534740E+01 -2.31081290952E+01 -2.31081034898E+01
 -2.31080765967E+01 -2.31080483518E+01 -2.31080186877E+01 -2.31079875338E+01
 -2.31079548158E+01 -2.31079204558E+01 -2.31078843719E+01 -2.31078464782E+01
 -2.31078066845E+01 -2.31077648962E+01 -2.31077210137E+01 -2.31076749327E+01
 -2.31076265437E+01 -2.31075757315E+01 -2.31075223753E+01 -2.31074663485E+01
 -2.31074075178E+01 -2.31073457434E+01 -2.31072808788E+01 -2.31072127699E+01
 -2.31071412550E+01 -2.31070661644E+01 -2.31069873200E+01 -2.31069045348E+01
 -2.31068176124E+01 -2.31067263469E+01 -2.31066305219E+01 -2.31065299105E+01
 -2.31064242744E+01 -2.31063133634E+01 -2.31061969152E+01 -2.31060746542E+01
 -2.31059462913E+01 -2.31058115230E+01 -2.31056700310E+01 -2.31055214809E+01
 -2.31053655221E+01 -2.31052017865E+01 -2.31050298879E+01 -2.31048494211E+01
 -2.31046599607E+01 -2.31044610608E+01 -2.31042522530E+01 -2.31040330462E+01
 -2.31038029252E+01 -2.31035613493E+01 -2.31033077513E+01 -2.31030415365E+01
 -2.31027620806E+01 -2.31024687292E+01 -2.31021607956E+01 -2.31018375599E+01
 -2.31014982668E+01 -2.31011421244E+01 -2.31007683023E+01 -2.31003759297E+01
 -2.30999640935E+01 -2.30995318366E+01 -2.30990781555E+01 -2.30986019982E+01
 -2.30981022621E+01 -2.30975777915E+01 -2.30970273751E+01 -2.30964497438E+01
 -2.30958435674E+01 -2.30952074527E+01 -2.30945399395E+01 -2.30938394986E+01
 -2.30931045282E+01 -2.30923333505E+01 -2.30915242086E+01 -2.30906752630E+01
 -2.30897845875E+01 -2.30888501659E+01 -2.30878698876E+01 -2.30868415438E+01
 -2.30857628231E+01 -2.30846313070E+01 -2.30834444654E+01 -2.30821996516E+01
 -2.30808940977E+01 -2.30795249090E+01 -2.30780890591E+01 -2.30765833839E+01
 -2.30750045764E+01 -2.30733491801E+01 -2.30716135833E+01 -2.30697940125E+01
 -2.30678865256E+01 -2.30658870053E+01 -2.30637911514E+01 -2.30615944740E+01
 -2.30592922850E+01 -2.30568796905E+01 -2.30543515819E+01 -2.30517026276E+01
 -2.30489272632E+01 -2.30460196820E+01 -2.30429738251E+01 -2.30397833701E+01
 -2.30364417205E+01 -2.30329419931E+01 -2.30292770058E+01 -2.30254392640E+01
 -2.30214209462E+01 -2.30172138889E+01 -2.30128095698E+01 -2.30081990905E+01
 -2.30033731576E+01 -2.29983220614E+01 -2.29930356546E+01 -2.29875033271E+01
 -2.29817139803E+01 -2.29756559978E+01 -2.29693172142E+01 -2.29626848800E+01
 -2.29557456242E+01 -2.29484854119E+01 -2.29408894988E+01 -2.29329423803E+01
 -2.29246277357E+01 -2.29159283666E+01 -2.29068261289E+01 -2.28973018578E+01
 -2.28873352856E+01 -2.28769049497E+01 -2.28659880932E+01 -2.28545605535E+01
 -2.28425966412E+01 -2.28300690059E+01 -2.28169484899E+01 -2.28032039669E+01
 -2.27888021655E+01 -2.27737074765E+01 -2.27578817424E+01 -2.27412840271E+01
 -2.27238703668E+01 -2.27055934973E+01 -2.26864025605E+01 -2.26662427846E+01
 -2.26450551407E+01 -2.26227759710E+01 -2.25993365907E+01 -2.25746628603E+01
 -2.25486747285E+01 -2.25212857451E+01 -2.24924025431E+01 -2.24619242907E+01
 -2.24297421130E+01 -2.23957384846E+01 -2.23597865940E+01 -2.23217496835E+01
 -2.22814803654E+01 -2.22388199205E+01 -2.21935975823E+01 -2.21456298146E+01
 -2.20947195887E+01 -2.20406556717E+01 -2.19832119347E+01 -2.19221466962E+01
 -2.18572021159E+01 -2.17881036561E+01 -2.17145596339E+01 -2.16362608860E+01
 -2.15528805755E+01 -2.14640741709E+01 -2.13694796321E+01 -2.12687178424E+01
 -2.11613933290E+01 -2.10470953187E+01 -2.09253991796E+01 -2.07958683024E+01
 -2.06580564800E+01 -2.05115108443E+01 -2.03557754230E+01 -2.01903953795E+01
 -2.00149219972E+01 -1.98289184689E+01 -1.96319665449E+01 -1.94236740894E+01
 -1.92036835800E+01 -1.89716815746E+01 -1.87274091486E+01 -1.84706732829E+01
 -1.82013591523E+01 -1.79194432292E+01 -1.76250070734E+01 -1.73182516264E+01
 -1.69995117680E+01 -1.66692708241E+01 -1.63281746258E+01 -1.59770446309E+01
 -1.56168894996E+01 -1.52489143916E+01 -1.48745270989E+01 -1.44953399522E+01
 -1.41131662417E+01 -1.37300096618E+01 -1.33480450408E+01 -1.29695883513E+01
 -1.25970537518E+01 -1.22328952212E+01 -1.18795303123E+01 -1.15392437989E+01
 -1.12140697397E+01 -1.09056520492E+01 -1.06150865030E+01 -1.03427518259E+01
 -1.00881449487E+01 -9.84974671726E+00 -9.62496064603E+00 -9.41019038515E+00
 -9.20115358064E+00 -8.99357361815E+00 -8.78445048921E+00 -8.57419385681E+00
 -8.36751561202E+00 -8.16581945598E+00 -7.96898523974E+00 -7.77689572723E+00
 -7.58943652045E+00 -7.40649598764E+00 -7.22796519408E+00 -7.05373783527E+00
 -6.88371017219E+00 -6.71778096853E+00 -6.55585142966E+00 -6.39782514335E+00
 -6.24360802200E+00 -6.09310824638E+00 -5.94623621083E+00 -5.80290446976E+00
 -5.66302768554E+00 -5.52652257765E+00 -5.39330787306E+00 -5.26330425782E+00
 -5.13643432984E+00 -5.01262255276E+00 -4.89179521104E+00 -4.77388036600E+00
 -4.65880781301E+00 -4.54650903973E+00 -4.43691718525E+00 -4.32996700034E+00
 -4.22559480857E+00 -4.12373846840E+00 -4.02433733620E+00 -3.92733223011E+00
 -3.83266539486E+00 -3.74028046732E+00 -3.65012244298E+00 -3.56213764319E+00
 -3.47627368321E+00 -3.39247944102E+00 -3.31070502686E+00 -3.23090175354E+00
 -3.15302210749E+00 -3.07701972040E+00 -3.00284934166E+00 -2.93046681142E+00
 -2.85982903427E+00 -2.79089395361E+00 -2.72362052661E+00 -2.65796869972E+00
 -2.59389938492E+00 -2.53137443634E+00 -2.47035662764E+00 -2.41080962978E+00
 -2.35269798944E+00 -2.29598710788E+00 -2.24064322033E+00 -2.18663337595E+00
 -2.13392541812E+00 -2.08248796538E+00 -2.03229039268E+00 -1.98330281319E+00
 -1.93549606050E+00 -1.88884167122E+00 -1.84331186808E+00 -1.79887954336E+00
 -1.75551824276E+00 -1.71320214966E+00 -1.67190606974E+00 -1.63160541597E+00
 -1.59227619397E+00 -1.55389498778E+00 -1.51643894582E+00 -1.47988576736E+00
 -1.44421368924E+00 -1.40940147286E+00 -1.37542839159E+00 -1.34227421839E+00
 -1.30991921381E+00 -1.27834411419E+00 -1.24753012022E+00 -1.21745888574E+00
 -1.18811250682E+00 -1.15947351110E+00 -1.13152484737E+00 -1.10424987545E+00
 -1.07763235625E+00 -1.05165644213E+00 -1.02630666744E+00 -1.00156793934E+00
 -9.77425528778E-01 -9.53865061753E-01 -9.30872510737E-01 -9.08434186335E-01
 -8.86536729126E-01 -8.65167101713E-01 -8.44312580963E-01 -8.23960750428E-01
 -8.04099492952E-01 -7.84716983461E-01 -7.65801681917E-01 -7.47342326454E-01
 -7.29327926665E-01 -7.11747757066E-01 -6.94591350703E-01 -6.77848492928E-01
 -6.61509215310E-01 -6.45563789704E-01 -6.30002722459E-01 -6.14816748765E-01
 -5.99996827135E-01 -5.85534134024E-01 -5.71420058577E-01 -5.57646197499E-01
 -5.44204350053E-01 -5.31086513177E-01 -5.18284876722E-01 -5.05791818798E-01
 -4.93599901237E-01 -4.81701865168E-01 -4.70090626689E-01 -4.58759272654E-01
 -4.47701056557E-01 -4.36909394513E-01 -4.26377861338E-01 -4.16100186725E-01
 -4.06070251513E-01 -3.96282084037E-01 -3.86729856580E-01 -3.77407881897E-01
 -3.68310609834E-01 -3.59432624021E-01 -3.50768638646E-01 -3.42313495312E-01
 -3.34062159961E-01 -3.26009719880E-01 -3.18151380775E-01 -3.10482463916E-01
 -3.02998403353E-01 -2.95694743196E-01 -2.88567134963E-01 -2.81611334988E-01
 -2.74823201902E-01 -2.68198694156E-01 -2.61733867626E-01 -2.55424873256E-01
 -2.49267954773E-01 -2.43259446446E-01 -2.37395770905E-01 -2.31673437010E-01
 -2.26089037777E-01 -2.20639248343E-01 -2.15320823991E-01 -2.10130598215E-01
 -2.05065480838E-01 -2.00122456171E-01 -1.95298581215E-01 -1.90590983912E-01
 -1.85996861435E-01 -1.81513478515E-01 -1.77138165820E-01 -1.72868318356E-01
 -1.68701393926E-01 -1.64634911609E-01 -1.60666450287E-01 -1.56793647201E-01
 -1.53014196547E-01
</PP_LOCAL>


<PP_NONLOCAL>
  <PP_BETA>
    1    0             Beta    L
   389
  9.21792005703E-03  9.44560268244E-03  9.67890906869E-03  9.91797812268E-03
  1.01629521812E-02  1.04139770885E-02  1.06712023013E-02  1.09347809663E-02
  1.12048700128E-02  1.14816302464E-02  1.17652264445E-02  1.20558274544E-02
  1.23536062938E-02  1.26587402540E-02  1.29714110052E-02  1.32918047048E-02
  1.36201121081E-02  1.39565286821E-02  1.43012547215E-02  1.46544954684E-02
  1.50164612340E-02  1.53873675243E-02  1.57674351679E-02  1.61568904478E-02
  1.65559652360E-02  1.69648971315E-02  1.73839296019E-02  1.78133121280E-02
  1.82533003528E-02  1.87041562331E-02  1.91661481961E-02  1.96395512986E-02
  2.01246473909E-02  2.06217252850E-02  2.11310809258E-02  2.16530175678E-02
  2.21878459554E-02  2.27358845079E-02  2.32974595092E-02  2.38729053015E-02
  2.44625644850E-02  2.50667881213E-02  2.56859359426E-02  2.63203765657E-02
  2.69704877114E-02  2.76366564296E-02  2.83192793289E-02  2.90187628137E-02
  2.97355233250E-02  3.04699875892E-02  3.12225928713E-02  3.19937872354E-02
  3.27840298115E-02  3.35937910685E-02  3.44235530941E-02  3.52738098821E-02