<UPF version="2.0.1">
  <PP_INFO>
    Generated using FHI98PP, converted with fhi2upf.x v.5.0.2
    Author: unknown
    Generation date: unknown
    Pseudopotential type: SL
    Element: Ti
    Functional: SLA-PW

    Suggested minimum cutoff for wavefunctions:   0. Ry
    Suggested minimum cutoff for charge density:   0. Ry
    The Pseudo was generated with a Non-Relativistic Calculation
    L component and cutoff radius for Local Potential:  1   0.0000

    Valence configuration: 
    nl pn  l   occ       Rcut    Rcut US       E pseu
    3s  3  0  2.00      0.000      0.000     0.000000
    3p  3  1  6.00      0.000      0.000     0.000000
    3d  3  2  2.00      0.000      0.000     0.000000

    Generation configuration: not available.
    Comment:
    OPIUM generated Ti potential
  </PP_INFO>
  <!--                               -->
  <!-- END OF HUMAN READABLE SECTION -->
  <!--                               -->
  <PP_HEADER generated="Generated using FHI98PP, converted with fhi2upf.x v.5.0.2"
             author="unknown"
             date="unknown"
             comment="OPIUM generated Ti potential"
             element="Ti"
             pseudo_type="SL"
             relativistic="no"
             is_ultrasoft="F"
             is_paw="F"
             is_coulomb="F"
             has_so="F"
             has_wfc="F"
             has_gipaw="F"
             paw_as_gipaw="F"
             core_correction="F"
             functional="SLA-PW"
             z_valence="1.200000000000000E+001"
             total_psenergy="0.000000000000000E+000"
             wfc_cutoff="0.000000000000000E+000"
             rho_cutoff="0.000000000000000E+000"
             l_max="2"
             l_max_rho="0"
             l_local="1"
             mesh_size="1156"
             number_of_wfc="3"
             number_of_proj="2"/>
  <PP_MESH dx="1.299999999999981E-002" mesh="1156" xmin="-7.149645403070639E+000" rmax="1.184288245688549E+002"
zmesh="2.200000000000000E+001">
    <PP_R type="real" size="1156" columns="4">
 3.568829277518041E-005  3.615526935244168E-005  3.662835625627655E-005  3.710763343949776E-005 
 3.759318190109001E-005  3.808508369989896E-005  3.858342196849936E-005  3.908828092724473E-005 
 3.959974589850068E-005  4.011790332106471E-005  4.064284076477449E-005  4.117464694530741E-005 
 4.171341173917373E-005  4.225922619890592E-005  4.281218256844678E-005  4.337237429873883E-005 
 4.393989606351783E-005  4.451484377531276E-005  4.509731460165535E-005  4.568740698150160E-005 
 4.628522064186817E-005  4.689085661468651E-005  4.750441725387751E-005  4.812600625264953E-005 
 4.875572866102280E-005  4.939369090358312E-005  5.004000079746792E-005  5.069476757058753E-005 
 5.135810188008503E-005  5.203011583103751E-005  5.271092299540214E-005  5.340063843121008E-005 
 5.409937870201160E-005  5.480726189657550E-005  5.552440764884652E-005  5.625093715816364E-005 
 5.698697320974318E-005  5.773264019542967E-005  5.848806413471846E-005  5.925337269605326E-005 
 6.002869521840245E-005  6.081416273311766E-005  6.160990798607835E-005  6.241606546012623E-005 
 6.323277139779314E-005  6.406016382432640E-005  6.489838257101537E-005  6.574756929882324E-005 
 6.660786752232821E-005  6.747942263397761E-005  6.836238192865973E-005  6.925689462859685E-005 
 7.016311190856431E-005  7.108118692143932E-005  7.201127482408416E-005  7.295353280356806E-005 
 7.390812010373223E-005  7.487519805210242E-005  7.585493008715363E-005  7.684748178593163E-005 
 7.785302089203589E-005  7.887171734396862E-005  7.990374330385482E-005  8.094927318653799E-005 
 8.200848368905680E-005  8.308155382050718E-005  8.416866493229537E-005  8.527000074878668E-005 
 8.638574739835537E-005  8.751609344484082E-005  8.866122991941524E-005  8.982135035286833E-005 
 9.099665080831457E-005  9.218732991432823E-005  9.339358889851217E-005  9.461563162150575E-005 
 9.585366461143772E-005  9.710789709883000E-005  9.837854105195821E-005  9.966581121267462E-005 
 1.009699251327003E-004  1.022911032103915E-004  1.036295687279880E-004  1.049855478893480E-004 
 1.063592698581770E-004  1.077509667967574E-004  1.091608739051841E-004  1.105892294611143E-004 
 1.120362748600365E-004  1.135022546560672E-004  1.149874166032811E-004  1.164920116975822E-004 
 1.180162942191224E-004  1.195605217752758E-004  1.211249553441749E-004  1.227098593188162E-004 
 1.243155015517437E-004  1.259421534003165E-004  1.275900897725684E-004  1.292595891736685E-004 
 1.309509337529894E-004  1.326644093517904E-004  1.344003055515260E-004  1.361589157227856E-004 
 1.379405370748737E-004  1.397454707060392E-004  1.415740216543618E-004  1.434264989493040E-004 
 1.453032156639374E-004  1.472044889678537E-004  1.491306401807666E-004  1.510819948268153E-004 
 1.530588826895796E-004  1.550616378678133E-004  1.570905988319085E-004  1.591461084810969E-004 
 1.612285142014019E-004  1.633381679243463E-004  1.654754261864307E-004  1.676406501893880E-004 
 1.698342058612283E-004  1.720564639180810E-004  1.743077999268469E-004  1.765885943686698E-004 
 1.788992327032390E-004  1.812401054339325E-004  1.836116081738134E-004  1.860141417124890E-004 
 1.884481120838456E-004  1.909139306346692E-004  1.934120140941636E-004  1.959427846443793E-004 
 1.985066699915627E-004  2.011041034384397E-004  2.037355239574450E-004  2.064013762649094E-004 
 2.091021108962178E-004  2.118381842819509E-004  2.146100588250230E-004  2.174182029788293E-004 
 2.202630913264153E-004  2.231452046606830E-004  2.260650300656455E-004  2.290230609987458E-004 
 2.320197973742518E-004  2.350557456477438E-004  2.381314189017055E-004  2.412473369322374E-004 
 2.444040263369030E-004  2.476020206037247E-004  2.508418602013451E-004  2.541240926703675E-004 
 2.574492727158911E-004  2.608179623012579E-004  2.642307307430255E-004  2.676881548071836E-004 
 2.711908188066276E-004  2.747393146999103E-004  2.783342421912835E-004  2.819762088320494E-004 
 2.856658301232387E-004  2.894037296196310E-004  2.931905390351380E-004  2.970268983495637E-004 
 3.009134559167633E-004  3.048508685742159E-004  3.088398017540321E-004  3.128809295954134E-004 
 3.169749350585831E-004  3.211225100402089E-004  3.253243554903339E-004  3.295811815308403E-004 
 3.338937075754606E-004  3.382626624513605E-004  3.426887845223124E-004  3.471728218134811E-004 
 3.517155321378411E-004  3.563176832242493E-004  3.609800528471933E-004  3.657034289582357E-004 
 3.704886098191815E-004  3.753364041369856E-004  3.802476312004259E-004  3.852231210185650E-004 
 3.902637144610247E-004  3.953702634000936E-004  4.005436308546966E-004  4.057846911362468E-004 
 4.110943299964056E-004  4.164734447767782E-004  4.219229445605651E-004  4.274437503262004E-004 
 4.330367951029980E-004  4.387030241288375E-004  4.444433950099105E-004  4.502588778825585E-004 
 4.561504555772283E-004  4.621191237845729E-004  4.681658912237252E-004  4.742917798127744E-004 
 4.804978248414726E-004  4.867850751462000E-004  4.931545932872227E-004  4.996074557282665E-004 
 5.061447530184427E-004  5.127675899765525E-004  5.194770858778046E-004  5.262743746429758E-004 
 5.331606050300457E-004  5.401369408283396E-004  5.472045610552114E-004  5.543646601553014E-004 
 5.616184482023992E-004  5.689671511039494E-004  5.764120108082332E-004  5.839542855142598E-004 
 5.915952498844059E-004  5.993361952598365E-004  6.071784298787442E-004  6.151232790974448E-004 
 6.231720856143657E-004  6.313262096969653E-004  6.395870294116210E-004  6.479559408565267E-004 
 6.564343583976346E-004  6.650237149076890E-004  6.737254620083836E-004  6.825410703156897E-004 
 6.914720296883926E-004  7.005198494798832E-004  7.096860587932408E-004  7.189722067396561E-004 
 7.283798627002341E-004  7.379106165912225E-004  7.475660791327136E-004  7.573478821208576E-004 
 7.672576787036417E-004  7.772971436602739E-004  7.874679736842270E-004  7.977718876699827E-004 
 8.082106270035288E-004  8.187859558566586E-004  8.294996614851174E-004  8.403535545306566E-004 
 8.513494693270343E-004  8.624892642100228E-004  8.737748218314704E-004  8.852080494774759E-004 
 8.967908793907239E-004  9.085252690970381E-004  9.204132017362081E-004  9.324566863971436E-004 
 9.446577584574172E-004  9.570184799272471E-004  9.695409397979817E-004  9.822272543951428E-004 
 9.950795677360928E-004  1.008100051892376E-003  1.021290907356804E-003  1.034654363415347E-003 
 1.048192678523885E-003  1.061908140689893E-003  1.075803067859121E-003  1.089879808307334E-003 
 1.104140741037170E-003  1.118588276180202E-003  1.133224855404258E-003  1.148052952326061E-003 
 1.163075072929286E-003  1.178293755988066E-003  1.193711573496061E-003  1.209331131101126E-003 
 1.225155068545672E-003  1.241186060112790E-003  1.257426815078210E-003  1.273880078168176E-003 
 1.290548630023309E-003  1.307435287668548E-003  1.324542904989225E-003  1.341874373213385E-003 
 1.359432621400409E-003  1.377220616936032E-003  1.395241366033834E-003  1.413497914243305E-003 
 1.431993346964546E-003  1.450730789969706E-003  1.469713409931251E-003  1.488944414957134E-003 
 1.508427055132977E-003  1.528164623071339E-003  1.548160454468181E-003  1.568417928666599E-003 
 1.588940469227948E-003  1.609731544510428E-003  1.630794668255248E-003  1.652133400180452E-003 
 1.673751346582524E-003  1.695652160945858E-003  1.717839544560208E-003  1.740317247146214E-003 
 1.763089067489110E-003  1.786158854080735E-003  1.809530505769930E-003  1.833207972421457E-003 
 1.857195255583537E-003  1.881496409164115E-003  1.906115540115984E-003  1.931056809130873E-003 
 1.956324431342606E-003  1.981922677039478E-003  2.007855872385939E-003  2.034128400153723E-003 
 2.060744700462555E-003  2.087709271530537E-003  2.115026670434358E-003  2.142701513879450E-003 
 2.170738478980225E-003  2.199142304050514E-003  2.227917789404360E-003  2.257069798167277E-003 
 2.286603257098127E-003  2.316523157421764E-003  2.346834555672553E-003  2.377542574548945E-003 
 2.408652403779217E-003  2.440169300998553E-003  2.472098592637597E-003  2.504445674822631E-003 
 2.537216014287535E-003  2.570415149297671E-003  2.604048690585874E-003  2.638122322300675E-003 
 2.672641802966931E-003  2.707612966459034E-003  2.743041722986849E-003  2.778934060094555E-003 
 2.815296043672548E-003  2.852133818982600E-003  2.889453611696413E-003  2.927261728947782E-003 
 2.965564560398509E-003  3.004368579318274E-003  3.043680343678632E-003  3.083506497261325E-003 
 3.123853770781099E-003  3.164728983023209E-003  3.206139041995814E-003  3.248090946097434E-003 
 3.290591785299716E-003  3.333648742345640E-003  3.377269093963427E-003  3.421460212096321E-003 
 3.466229565148465E-003  3.511584719247081E-003  3.557533339521162E-003  3.604083191396898E-003 
 3.651242141910044E-003  3.699018161035482E-003  3.747419323034156E-003  3.796453807817643E-003 
 3.846129902330579E-003  3.896456001951171E-003  3.947440611910033E-003  3.999092348727600E-003 
 4.051419941670331E-003  4.104432234225973E-003  4.158138185598144E-003  4.212546872220453E-003 
 4.267667489290436E-003  4.323509352323571E-003  4.380081898727618E-003  4.437394689397570E-003 
 4.495457410331458E-003  4.554279874267320E-003  4.613872022341555E-003  4.674243925769030E-003 
 4.735405787545111E-003  4.797367944170010E-003  4.860140867395674E-003  4.923735165995535E-003 
 4.988161587557414E-003  5.053431020299897E-003  5.119554494912470E-003  5.186543186419714E-003 
 5.254408416069937E-003  5.323161653248477E-003  5.392814517416055E-003  5.463378780072497E-003 
 5.534866366746142E-003  5.607289359009282E-003  5.680659996519987E-003  5.754990679090631E-003 
 5.830293968783469E-003  5.906582592033694E-003  5.983869441800213E-003  6.062167579744584E-003 
 6.141490238438476E-003  6.221850823600006E-003  6.303262916359330E-003  6.385740275553896E-003 
 6.469296840053715E-003  6.553946731117049E-003  6.639704254776971E-003  6.726583904259087E-003 
 6.814600362430943E-003  6.903768504283459E-003  6.994103399444835E-003  7.085620314727360E-003 
 7.178334716707537E-003  7.272262274339973E-003  7.367418861605456E-003  7.463820560193719E-003 
 7.561483662221269E-003  7.660424672984798E-003  7.760660313750612E-003  7.862207524580573E-003 
 7.965083467195003E-003  8.069305527873058E-003  8.174891320391058E-003  8.281858688999229E-003 
 8.390225711437466E-003  8.500010701990485E-003  8.611232214582988E-003  8.723909045915322E-003 
 8.838060238640161E-003  8.953705084580771E-003  9.070863127991357E-003  9.189554168860114E-003 
 9.309798266255430E-003  9.431615741715962E-003  9.555027182685003E-003  9.680053445989807E-003 
 9.806715661366447E-003  9.935035235030788E-003  1.006503385329620E-002  1.019673348623856E-002 
 1.033015639140933E-002  1.046532511759700E-002  1.060226250863804E-002  1.074099170727744E-002 
 1.088153615907998E-002  1.102391961639250E-002  1.116816614235820E-002  1.131430011498327E-002 
 1.146234623125689E-002  1.161232951132511E-002  1.176427530271919E-002  1.191820928463955E-002 
 1.207415747229551E-002  1.223214622130194E-002  1.239220223213346E-002  1.255435255463686E-002 
 1.271862459260256E-002  1.288504610839597E-002  1.305364522764937E-002  1.322445044401517E-002 
 1.339749062398147E-002  1.357279501175056E-002  1.375039323418119E-002  1.393031530579567E-002 
 1.411259163385232E-002  1.429725302348443E-002  1.448433068290635E-002  1.467385622868781E-002 
 1.486586169109710E-002  1.506037951951437E-002  1.525744258791560E-002  1.545708420042838E-002 
 1.565933809696038E-002  1.586423845890151E-002  1.607181991490062E-002  1.628211754671783E-002 
 1.649516689515347E-002  1.671100396605447E-002  1.692966523639953E-002  1.715118766046379E-002 
 1.737560867606415E-002  1.760296621088640E-002  1.783329868889505E-002  1.806664503682710E-002 
 1.830304469077073E-002  1.854253760283014E-002  1.878516424787745E-002  1.903096563039315E-002 
 1.927998329139593E-002  1.953225931546318E-002  1.978783633784341E-002  2.004675755166170E-002 
 2.030906671521945E-002  2.057480815938961E-002  2.084402679510875E-002  2.111676812096706E-002 
 2.139307823089776E-002  2.167300382196707E-002  2.195659220226615E-002  2.224389129890621E-002 
 2.253494966611841E-002  2.282981649345955E-002  2.312854161412525E-002  2.343117551337192E-002 
 2.373776933704880E-002  2.404837490024182E-002  2.436304469603045E-002  2.468183190435911E-002 
 2.500479040102475E-002  2.533197476678199E-002  2.566344029656736E-002  2.599924300884432E-002 
 2.633943965507052E-002  2.668408772928881E-002  2.703324547784406E-002  2.738697190922681E-002 
 2.774532680404585E-002  2.810837072513135E-002  2.847616502777003E-002  2.884877187007444E-002 
 2.922625422348775E-002  2.960867588342618E-002  2.999610148006038E-002  3.038859648923835E-002 
 3.078622724355079E-002  3.118906094354159E-002  3.159716566906483E-002  3.201061039079046E-002 
 3.242946498186048E-002  3.285380022969770E-002  3.328368784796899E-002  3.371920048870495E-002 
 3.416041175457846E-002  3.460739621134358E-002  3.506022940043737E-002  3.551898785174657E-002 
 3.598374909654135E-002  3.645459168057824E-002  3.693159517737461E-002  3.741484020165674E-002 
 3.790440842298388E-002  3.840038257955065E-002  3.890284649216999E-002  3.941188507843905E-002 
 3.992758436709046E-002  4.045003151253143E-002  4.097931480957299E-002  4.151552370835212E-002 
 4.205874882944895E-002  4.260908197920182E-002  4.316661616522290E-002  4.373144561211664E-002 
 4.430366577740388E-002  4.488337336765452E-002  4.547066635483107E-002  4.606564399284617E-002 
 4.666840683433675E-002  4.727905674765769E-002  4.789769693409768E-002  4.852443194532068E-002 
 4.915936770103527E-002  4.980261150689541E-002  5.045427207263523E-002  5.111445953044139E-002 
 5.178328545356554E-002  5.246086287518058E-002  5.314730630748350E-002  5.384273176104805E-002 
 5.454725676443115E-002  5.526100038403518E-002  5.598408324423063E-002  5.671662754774190E-002 
 5.745875709629979E-002  5.821059731156436E-002  5.897227525632144E-002  5.974391965595661E-002 
 6.052566092020989E-002  6.131763116521562E-002  6.211996423583016E-002  6.293279572825208E-002 
 6.375626301293821E-002  6.459050525781961E-002  6.543566345182124E-002  6.629188042868941E-002 
 6.715930089113120E-002  6.803807143526916E-002  6.892834057541687E-002  6.983025876917794E-002 
 7.074397844287378E-002  7.166965401730398E-002  7.260744193384380E-002  7.355750068088319E-002 
 7.451999082061161E-002  7.549507501615356E-002  7.648291805905877E-002  7.748368689715271E-002 
 7.849755066275091E-002  7.952468070124291E-002  8.056525060004983E-002  8.161943621796126E-002 
 8.268741571485569E-002  8.376936958180996E-002  8.486548067160284E-002  8.597593422961720E-002 
 8.710091792514740E-002  8.824062188311559E-002  8.939523871620322E-002  9.056496355740321E-002 
 9.174999409299776E-002  9.295053059596790E-002  9.416677595984002E-002  9.539893573297546E-002 
 9.664721815330840E-002  9.791183418353896E-002  9.919299754678619E-002  1.004909247627078E-001 
 1.018058351840923E-001  1.031379510339308E-001  1.044874974429722E-001  1.058547024877719E-001 
 1.072397972292364E-001  1.086430157516738E-001  1.100645952023541E-001  1.115047758315880E-001 
 1.129638010333298E-001  1.144419173863108E-001  1.159393746957129E-001  1.174564260353855E-001 
 1.189933277906157E-001  1.205503397014582E-001  1.221277249066317E-001  1.237257499879902E-001 
 1.253446850155760E-001  1.269848035932618E-001  1.286463829049911E-001  1.303297037616221E-001 
 1.320350506483861E-001  1.337627117729659E-001  1.355129791142036E-001  1.372861484714455E-001 
 1.390825195145334E-001  1.409023958344491E-001  1.427460849946225E-001  1.446138985829091E-001 
 1.465061522642514E-001  1.484231658340251E-001  1.503652632720863E-001  1.523327727975242E-001 
 1.543260269241318E-001  1.563453625166004E-001  1.583911208474514E-001  1.604636476547117E-001 
 1.625632932003448E-001  1.646904123294451E-001  1.668453645302081E-001  1.690285139946849E-001 
 1.712402296803310E-001  1.734808853723613E-001  1.757508597469209E-001  1.780505364350818E-001 
 1.803803040876780E-001  1.827405564409873E-001  1.851316923832753E-001  1.875541160222074E-001 
 1.900082367531443E-001  1.924944693283303E-001  1.950132339269884E-001  1.975649562263304E-001 
 2.001500674734984E-001  2.027690045584460E-001  2.054222100877738E-001  2.081101324595311E-001 
 2.108332259389964E-001  2.135919507354488E-001  2.163867730799450E-001  2.192181653041132E-001 
 2.220866059199783E-001  2.249925797008314E-001  2.279365777631584E-001  2.309190976496381E-001 
 2.339406434132305E-001  2.370017257023609E-001  2.401028618472222E-001  2.432445759472036E-001 
 2.464273989594658E-001  2.496518687886732E-001  2.529185303779014E-001  2.562279358007341E-001 
 2.595806443545643E-001  2.629772226551176E-001  2.664182447322108E-001  2.699042921267649E-001 
 2.734359539890868E-001  2.770138271784369E-001  2.806385163638997E-001  2.843106341265750E-001 
 2.880308010631049E-001  2.917996458905552E-001  2.956178055526724E-001  2.994859253275269E-001 
 3.034046589365673E-001  3.073746686551004E-001  3.113966254242176E-001  3.154712089641857E-001 
 3.195991078893206E-001  3.237810198243657E-001  3.280176515223912E-001  3.323097189842378E-001 
 3.366579475795220E-001  3.410630721692256E-001  3.455258372298889E-001  3.500469969794289E-001 
 3.546273155046042E-001  3.592675668901472E-001  3.639685353495867E-001  3.687310153577800E-001 
 3.735558117851843E-001  3.784437400338792E-001  3.833956261753726E-001  3.884123070902083E-001 
 3.934946306094011E-001  3.986434556577221E-001  4.038596523988593E-001  4.091441023824771E-001 
 4.144976986931999E-001  4.199213461015465E-001  4.254159612168377E-001  4.309824726421058E-001 
 4.366218211310302E-001  4.423349597469280E-001  4.481228540238230E-001  4.539864821296238E-001 
 4.599268350314371E-001  4.659449166630402E-001  4.720417440945534E-001  4.782183477043236E-001 
 4.844757713530617E-001  4.908150725602577E-001  4.972373226829037E-001  5.037436070965561E-001 
 5.103350253787663E-001  5.170126914949122E-001  5.237777339864611E-001  5.306312961616952E-001 
 5.375745362889346E-001  5.446086277922861E-001  5.517347594499559E-001  5.589541355951546E-001 
 5.662679763196340E-001  5.736775176798840E-001  5.811840119060308E-001  5.887887276134628E-001 
 5.964929500172358E-001  6.042979811492726E-001  6.122051400784111E-001  6.202157631333304E-001 
 6.283312041283928E-001  6.365528345924419E-001  6.448820440005945E-001  6.533202400090649E-001 
 6.618688486930622E-001  6.705293147878003E-001  6.793031019326623E-001  6.881916929185581E-001 
 6.971965899385200E-001  7.063193148415765E-001  7.155614093899498E-001  7.249244355196154E-001 
 7.344099756042753E-001  7.440196327227778E-001  7.537550309300491E-001  7.636178155315576E-001 
 7.736096533613752E-001  7.837322330638767E-001  7.939872653791246E-001  8.043764834319879E-001 
 8.149016430250451E-001  8.255645229353182E-001  8.363669252148910E-001  8.473106754954591E-001 
 8.583976232968673E-001  8.696296423396823E-001  8.810086308618552E-001  8.925365119395297E-001 
 9.042152338120449E-001  9.160467702111943E-001  9.280331206947908E-001  9.401763109845920E-001 
 9.524783933086599E-001  9.649414467481877E-001  9.775675775888699E-001  9.903589196768703E-001 
 1.003317634779446E+000  1.016445912950292E+000  1.029745972899667E+000  1.043220062369357E+000 
 1.056870458512551E+000  1.070699468278689E+000  1.084709428803333E+000  1.098902707803159E+000 
 1.113281703976098E+000  1.127848847406728E+000  1.142606599976959E+000  1.157557455782100E+000 
 1.172703941552369E+000  1.188048617079906E+000  1.203594075651402E+000  1.219342944486352E+000 
 1.235297885181075E+000  1.251461594158522E+000  1.267836803123982E+000  1.284426279526743E+000 
 1.301232827027804E+000  1.318259285973692E+000  1.335508533876494E+000  1.352983485900161E+000 
 1.370687095353177E+000  1.388622354187675E+000  1.406792293505087E+000  1.425199984068402E+000 
 1.443848536821139E+000  1.462741103413098E+000  1.481880876733002E+000  1.501271091448091E+000 
 1.520915024550805E+000  1.540815995912593E+000  1.560977368844982E+000  1.581402550667982E+000 
 1.602094993285936E+000  1.623058193770897E+000  1.644295694953640E+000  1.665811086022414E+000 
 1.687608003129516E+000  1.709690130005818E+000  1.732061198583319E+000  1.754724989625854E+000 
 1.777685333368050E+000  1.800946110162649E+000  1.824511251136291E+000  1.848384738853889E+000 
 1.872570607991691E+000  1.897072946019139E+000  1.921895893889682E+000  1.947043646740590E+000 
 1.972520454601949E+000  1.998330623114926E+000  2.024478514259429E+000  2.050968547091298E+000 
 2.077805198489127E+000  2.104993003910880E+000  2.132536558160380E+000  2.160440516163852E+000 
 2.188709593756613E+000  2.217348568480060E+000  2.246362280389084E+000  2.275755632870053E+000 
 2.305533593469496E+000  2.335701194733629E+000  2.366263535058870E+000  2.397225779553469E+000 
 2.428593160910440E+000  2.460370980291893E+000  2.492564608224935E+000  2.525179485509313E+000 
 2.558221124136914E+000  2.591695108223307E+000  2.625607094951475E+000  2.659962815527888E+000 
 2.694768076151095E+000  2.730028758992979E+000  2.765750823192867E+000  2.801940305864628E+000 
 2.838603323116970E+000  2.875746071087069E+000  2.913374826987735E+000  2.951495950168276E+000 
 2.990115883189247E+000  3.029241152911236E+000  3.068878371597955E+000  3.109034238033701E+000 
 3.149715538655477E+000  3.190929148699914E+000  3.232682033365201E+000  3.274981248988222E+000 
 3.317833944237095E+000  3.361247361319309E+000  3.405228837205680E+000  3.449785804870313E+000 
 3.494925794546794E+000  3.540656435000814E+000  3.586985454819454E+000  3.633920683717331E+000 
 3.681470053859839E+000  3.729641601203704E+000  3.778443466855087E+000  3.827883898445422E+000 
 3.877971251525330E+000  3.928713990976691E+000  3.980120692443248E+000  4.032200043779898E+000 
 4.084960846520975E+000  4.138412017367716E+000  4.192562589695211E+000  4.247421715079072E+000 
 4.302998664842054E+000  4.359302831620948E+000  4.416343730953947E+000  4.474131002888805E+000 
 4.532674413612014E+000  4.591983857099327E+000  4.652069356787856E+000  4.712941067270058E+000 
 4.774609276009891E+000  4.837084405081395E+000  4.900377012930086E+000  4.964497796157334E+000 
 5.029457591328117E+000  5.095267376802430E+000  5.161938274590652E+000  5.229481552233192E+000 
 5.297908624704731E+000  5.367231056343381E+000  5.437460562805083E+000  5.508609013043579E+000 
 5.580688431316304E+000  5.653710999216499E+000  5.727689057731940E+000  5.802635109330592E+000 
 5.878561820073554E+000  5.955482021755654E+000  6.033408714074065E+000  6.112355066825240E+000 
 6.192334422130705E+000  6.273360296691865E+000  6.355446384074371E+000  6.438606557022363E+000 
 6.522854869802997E+000  6.608205560581654E+000  6.694673053828217E+000  6.782271962754848E+000 
 6.871017091785646E+000  6.960923439058642E+000  7.052006198960510E+000  7.144280764694461E+000 
 7.237762730881722E+000  7.332467896197080E+000  7.428412266038876E+000  7.525612055233974E+000 
 7.624083690778103E+000  7.723843814612018E+000  7.824909286434099E+000  7.927297186549627E+000 
 8.031024818757416E+000  8.136109713274191E+000  8.242569629697238E+000  8.350422560005818E+000 
 8.459686731601851E+000  8.570380610390398E+000  8.682522903900434E+000  8.796132564446475E+000 
 8.911228792331556E+000  9.027831039092126E+000  9.145959010785413E+000  9.265632671319791E+000 
 9.386872245828725E+000  9.509698224088865E+000  9.634131363982897E+000  9.760192695007589E+000 
 9.887903521827941E+000  1.001728542787765E+001  1.014836027900678E+001  1.028115022717713E+001 
 1.041567771420602E+001  1.055196547555892E+001  1.069003654419190E+001  1.082991425444416E+001 
 1.097162224598167E+001  1.111518446779227E+001  1.126062518223314E+001  1.140796896913118E+001 
 1.155724072993708E+001  1.170846569193369E+001  1.186166941249952E+001  1.201687778342798E+001 
 1.217411703530319E+001  1.233341374193293E+001  1.249479482483977E+001  1.265828755781082E+001 
 1.282391957150710E+001  1.299171885813313E+001  1.316171377616773E+001  1.333393305515666E+001 
 1.350840580056795E+001  1.368516149871086E+001  1.386423002171906E+001  1.404564163259914E+001 
 1.422942699034511E+001  1.441561715511986E+001  1.460424359350439E+001  1.479533818381574E+001 
 1.498893322149448E+001  1.518506142456278E+001  1.538375593915376E+001  1.558505034511326E+001 
 1.578897866167502E+001  1.599557535320989E+001  1.620487533505047E+001  1.641691397939185E+001 
 1.663172712126958E+001  1.684935106461594E+001  1.706982258839529E+001  1.729317895281992E+001 
 1.751945790564701E+001  1.774869768855816E+001  1.798093704362229E+001  1.821621521984317E+001 
 1.845457197979255E+001  1.869604760633018E+001  1.894068290941169E+001  1.918851923298554E+001 
 1.943959846198034E+001  1.969396302938330E+001  1.995165592341176E+001  2.021272069477816E+001 
 2.047720146405020E+001  2.074514292910738E+001  2.101659037269503E+001  2.129158967007719E+001 
 2.157018729678963E+001  2.185243033649436E+001  2.213836648893685E+001  2.242804407800743E+001 
 2.272151205990811E+001  2.301882003142631E+001  2.332001823831684E+001  2.362515758379354E+001 
 2.393428963713207E+001  2.424746664238524E+001  2.456474152721224E+001  2.488616791182381E+001 
 2.521180011804396E+001  2.554169317849058E+001  2.587590284587607E+001  2.621448560242967E+001 
 2.655749866944308E+001  2.690500001694105E+001  2.725704837347839E+001  2.761370323606525E+001 
 2.797502488022229E+001  2.834107437016736E+001  2.871191356913549E+001  2.908760514983393E+001 
 2.946821260503400E+001  2.985380025830152E+001  3.024443327486763E+001  3.064017767264193E+001 
 3.104110033336943E+001  3.144726901393409E+001  3.185875235780965E+001  3.227561990666059E+001 
 3.269794211209486E+001  3.312579034757034E+001  3.355923692045714E+001  3.399835508425772E+001 
 3.444321905098693E+001  3.489390400371394E+001  3.535048610926845E+001  3.581304253111300E+001 
 3.628165144238381E+001  3.675639203910223E+001  3.723734455355903E+001  3.772459026787386E+001 
 3.821821152773212E+001  3.871829175630169E+001  3.922491546833129E+001  3.973816828443413E+001 
 4.025813694555772E+001  4.078490932764338E+001  4.131857445647742E+001  4.185922252273682E+001 
 4.240694489723157E+001  4.296183414634658E+001  4.352398404768563E+001  4.409348960592005E+001 
 4.467044706884463E+001  4.525495394364383E+001  4.584710901337068E+001  4.644701235364134E+001 
 4.705476534954815E+001  4.767047071279394E+001  4.829423249905050E+001  4.892615612554444E+001 
 4.956634838887251E+001  5.021491748305098E+001  5.087197301780046E+001  5.153762603707017E+001 
 5.221198903780467E+001  5.289517598895615E+001  5.358730235074540E+001  5.428848509417489E+001 
 5.499884272079714E+001  5.571849528274177E+001  5.644756440300458E+001  5.718617329600219E+001 
 5.793444678839543E+001  5.869251134018550E+001  5.946049506608591E+001  6.023852775717423E+001 
 6.102674090282703E+001  6.182526771294206E+001  6.263424314045060E+001  6.345380390412543E+001 
 6.428408851168624E+001  6.512523728320788E+001  6.597739237483475E+001  6.684069780280554E+001 
 6.771529946779233E+001  6.860134517955814E+001  6.949898468193713E+001  7.040836967814168E+001 
 7.132965385640057E+001  7.226299291593266E+001  7.320854459326046E+001  7.416646868886795E+001 
 7.513692709420721E+001  7.612008381905855E+001  7.711610501924848E+001  7.812515902473059E+001 
 7.914741636803319E+001  8.018304981308047E+001  8.123223438438960E+001  8.229514739665026E+001 
 8.337196848469137E+001  8.446287963383972E+001  8.556806521067604E+001  8.668771199419322E+001 
 8.782200920736258E+001  8.897114854911284E+001  9.013532422672785E+001  9.131473298866797E+001 
 9.250957415782108E+001  9.372004966518858E+001  9.494636408401229E+001  9.618872466434773E+001 
 9.744734136808991E+001  9.872242690445759E+001  1.000141967659409E+002  1.013228692647210E+002 
 1.026486655695652E+002  1.039918097432043E+002  1.053525287802007E+002  1.067310526453101E+002 
 1.081276143123468E+002  1.095424498035564E+002  1.109757982295045E+002  1.124279018294865E+002 