<PP_INFO>
Generated using Fritz-Haber code                                                
Author: unknown    Generation date: as well                                     
carbon, fhi98PP : Trouiller-Martins-type, LDA Ceperley/Alder Perdew/Wang (1992),
    1        The Pseudo was generated with a Scalar-Relativistic Calculation
nl pn  l   occ               Rcut            Rcut US             E pseu
2s  0  0  2.00      0.00000000000      0.00000000000      0.00000000000
2p  0  1  2.00      0.00000000000      0.00000000000      0.00000000000
3s  0  2  0.00      0.00000000000      0.00000000000      0.00000000000
3d  0  3  0.00      0.00000000000      0.00000000000      0.00000000000
</PP_INFO>


<PP_HEADER>
   0                   Version Number
   C                   Element
   NC                  Norm - Conserving pseudopotential
    F                  Nonlinear Core Correction
SLA  PW   NOGX NOGC    PW   Exchange-Correlation functional
    4.00000000000      Z valence
    0.00000000000      Total energy
    0.00000    0.00000 Suggested cutoff for wfc and rho
    3                  Max angular momentum component
  461                  Number of points in mesh
    4    3             Number of Wavefunctions, Number of Projectors
 Wavefunctions         nl  l   occ
                       2s  0  2.00
                       2p  1  2.00
                       3s  2  0.00
                       3d  3  0.00
</PP_HEADER>


<PP_MESH>
  <PP_R>
  1.04166666667E-03  1.06739583333E-03  1.09376051042E-03  1.12077639502E-03
  1.14845957198E-03  1.17682652341E-03  1.20589413854E-03  1.23567972376E-03
  1.26620101294E-03  1.29747617796E-03  1.32952383955E-03  1.36236307839E-03
  1.39601344642E-03  1.43049497855E-03  1.46582820452E-03  1.50203416117E-03
  1.53913440495E-03  1.57715102476E-03  1.61610665507E-03  1.65602448945E-03
  1.69692829434E-03  1.73884242321E-03  1.78179183106E-03  1.82580208929E-03
  1.87089940089E-03  1.91711061609E-03  1.96446324831E-03  2.01298549055E-03
  2.06270623216E-03  2.11365507610E-03  2.16586235648E-03  2.21935915668E-03
  2.27417732785E-03  2.33034950785E-03  2.38790914069E-03  2.44689049647E-03
  2.50732869173E-03  2.56925971042E-03  2.63272042526E-03  2.69774861977E-03
  2.76438301068E-03  2.83266327104E-03  2.90263005383E-03  2.97432501616E-03
  3.04779084406E-03  3.12307127791E-03  3.20021113848E-03  3.27925635360E-03
  3.36025398553E-03  3.44325225897E-03  3.52830058977E-03  3.61544961434E-03
  3.70475121981E-03  3.79625857494E-03  3.89002616174E-03  3.98610980794E-03
  4.08456672019E-03  4.18545551818E-03  4.28883626948E-03  4.39477052534E-03
  4.50332135731E-03  4.61455339484E-03  4.72853286369E-03  4.84532762542E-03
  4.96500721777E-03  5.08764289605E-03  5.21330767558E-03  5.34207637517E-03
  5.47402566164E-03  5.60923409548E-03  5.74778217764E-03  5.88975239742E-03
  6.03522928164E-03  6.18429944490E-03  6.33705164119E-03  6.49357681672E-03
  6.65396816410E-03  6.81832117775E-03  6.98673371084E-03  7.15930603350E-03
  7.33614089253E-03  7.51734357257E-03  7.70302195881E-03  7.89328660120E-03
  8.08825078025E-03  8.28803057452E-03  8.49274492971E-03  8.70251572947E-03
  8.91746786799E-03  9.13772932433E-03  9.36343123864E-03  9.59470799024E-03
  9.83169727759E-03  1.00745402004E-02  1.03233813433E-02  1.05783688625E-02
  1.08396545734E-02  1.11073940413E-02  1.13817466742E-02  1.16628758170E-02
  1.19509488497E-02  1.22461372863E-02  1.25486168773E-02  1.28585677141E-02
  1.31761743367E-02  1.35016258428E-02  1.38351160011E-02  1.41768433663E-02
  1.45270113975E-02  1.48858285790E-02  1.52535085449E-02  1.56302702059E-02
  1.60163378800E-02  1.64119414257E-02  1.68173163789E-02  1.72327040934E-02
  1.76583518846E-02  1.80945131761E-02  1.85414476516E-02  1.89994214085E-02
  1.94687071173E-02  1.99495841831E-02  2.04423389125E-02  2.09472646836E-02
  2.14646621213E-02  2.19948392757E-02  2.25381118058E-02  2.30948031674E-02
  2.36652448056E-02  2.42497763523E-02  2.48487458282E-02  2.54625098502E-02
  2.60914338435E-02  2.67358922594E-02  2.73962687982E-02  2.80729566375E-02
  2.87663586665E-02  2.94768877255E-02  3.02049668524E-02  3.09510295336E-02
  3.17155199631E-02  3.24988933062E-02  3.33016159709E-02  3.41241658853E-02
  3.49670327827E-02  3.58307184924E-02  3.67157372392E-02  3.76226159490E-02
  3.85518945629E-02  3.95041263587E-02  4.04798782797E-02  4.14797312732E-02
  4.25042806357E-02  4.35541363674E-02  4.46299235356E-02  4.57322826470E-02
  4.68618700284E-02  4.80193582181E-02  4.92054363660E-02  5.04208106443E-02
  5.16662046672E-02  5.29423599225E-02  5.42500362126E-02  5.55900121070E-02
  5.69630854061E-02  5.83700736156E-02  5.98118144339E-02  6.12891662504E-02
  6.28030086568E-02  6.43542429706E-02  6.59437927720E-02  6.75726044535E-02
  6.92416477835E-02  7.09519164837E-02  7.27044288209E-02  7.45002282127E-02
  7.63403838496E-02  7.82259913307E-02  8.01581733165E-02  8.21380801975E-02
  8.41668907783E-02  8.62458129806E-02  8.83760845612E-02  9.05589738498E-02
  9.27957805039E-02  9.50878362824E-02  9.74365058385E-02  9.98431875328E-02
  1.02309314265E-01  1.04836354327E-01  1.07425812279E-01  1.10079229842E-01
  1.12798186819E-01  1.15584302034E-01  1.18439234294E-01  1.21364683381E-01
  1.24362391061E-01  1.27434142120E-01  1.30581765430E-01  1.33807135036E-01
  1.37112171272E-01  1.40498841902E-01  1.43969163297E-01  1.47525201631E-01
  1.51169074111E-01  1.54902950241E-01  1.58729053112E-01  1.62649660724E-01
  1.66667107344E-01  1.70783784896E-01  1.75002144382E-01  1.79324697349E-01
  1.83754017373E-01  1.88292741602E-01  1.92943572320E-01  1.97709278556E-01
  2.02592697737E-01  2.07596737371E-01  2.12724376784E-01  2.17978668890E-01
  2.23362742012E-01  2.28879801740E-01  2.34533132843E-01  2.40326101224E-01
  2.46262155924E-01  2.52344831175E-01  2.58577748505E-01  2.64964618893E-01
  2.71509244980E-01  2.78215523331E-01  2.85087446757E-01  2.92129106692E-01
  2.99344695628E-01  3.06738509610E-01  3.14314950797E-01  3.22078530082E-01
  3.30033869775E-01  3.38185706358E-01  3.46538893305E-01  3.55098403970E-01
  3.63869334548E-01  3.72856907111E-01  3.82066472717E-01  3.91503514593E-01
  4.01173651403E-01  4.11082640593E-01  4.21236381816E-01  4.31640920446E-01
  4.42302451182E-01  4.53227321726E-01  4.64422036572E-01  4.75893260876E-01
  4.87647824419E-01  4.99692725682E-01  5.12035136007E-01  5.24682403866E-01
  5.37642059242E-01  5.50921818105E-01  5.64529587012E-01  5.78473467811E-01
  5.92761762466E-01  6.07402977999E-01  6.22405831556E-01  6.37779255595E-01
  6.53532403208E-01  6.69674653568E-01  6.86215617511E-01  7.03165143263E-01
  7.20533322302E-01  7.38330495363E-01  7.56567258598E-01  7.75254469886E-01
  7.94403255292E-01  8.14025015697E-01  8.34131433585E-01  8.54734479995E-01
  8.75846421651E-01  8.97479828265E-01  9.19647580023E-01  9.42362875250E-01
  9.65639238269E-01  9.89490527454E-01  1.01393094348E+00  1.03897503779E+00
  1.06463772122E+00  1.09093427293E+00  1.11788034948E+00  1.14549199411E+00
  1.17378564636E+00  1.20277815183E+00  1.23248677218E+00  1.26292919545E+00
  1.29412354658E+00  1.32608839818E+00  1.35884278161E+00  1.39240619832E+00
  1.42679863142E+00  1.46204055761E+00  1.49815295939E+00  1.53515733748E+00
  1.57307572372E+00  1.61193069409E+00  1.65174538224E+00  1.69254349318E+00
  1.73434931746E+00  1.77718774560E+00  1.82108428292E+00  1.86606506471E+00
  1.91215687181E+00  1.95938714654E+00  2.00778400906E+00  2.05737627408E+00
  2.10819346805E+00  2.16026584671E+00  2.21362441313E+00  2.26830093613E+00
  2.32432796925E+00  2.38173887009E+00  2.44056782019E+00  2.50084984534E+00
  2.56262083652E+00  2.62591757119E+00  2.69077773519E+00  2.75723994525E+00
  2.82534377190E+00  2.89512976307E+00  2.96663946822E+00  3.03991546308E+00
  3.11500137502E+00  3.19194190898E+00  3.27078287413E+00  3.35157121112E+00
  3.43435502004E+00  3.51918358903E+00  3.60610742368E+00  3.69517827705E+00
  3.78644918049E+00  3.87997447525E+00  3.97580984479E+00  4.07401234795E+00
  4.17464045295E+00  4.27775407214E+00  4.38341459772E+00  4.49168493828E+00
  4.60262955626E+00  4.71631450630E+00  4.83280747460E+00  4.95217781922E+00
  5.07449661136E+00  5.19983667766E+00  5.32827264360E+00  5.45988097790E+00
  5.59474003805E+00  5.73293011699E+00  5.87453349088E+00  6.01963446810E+00
  6.16831943947E+00  6.32067692962E+00  6.47679764978E+00  6.63677455173E+00
  6.80070288316E+00  6.96868024437E+00  7.14080664641E+00  7.31718457058E+00
  7.49791902947E+00  7.68311762950E+00  7.87289063495E+00  8.06735103363E+00
  8.26661460416E+00  8.47079998488E+00  8.68002874451E+00  8.89442545450E+00
  9.11411776322E+00  9.33923647198E+00  9.56991561283E+00  9.80629252847E+00
  1.00485079539E+01  1.02967061004E+01  1.05510347411E+01  1.08116452992E+01
  1.10786929381E+01  1.13523366536E+01  1.16327393690E+01  1.19200680314E+01
  1.22144937118E+01  1.25161917064E+01  1.28253416416E+01  1.31421275801E+01
  1.34667381314E+01  1.37993665632E+01  1.41402109173E+01  1.44894741270E+01
  1.48473641379E+01  1.52140940321E+01  1.55898821547E+01  1.59749522439E+01
  1.63695335644E+01  1.67738610434E+01  1.71881754112E+01  1.76127233438E+01
  1.80477576104E+01  1.84935372234E+01  1.89503275928E+01  1.94184006844E+01
  1.98980351813E+01  2.03895166502E+01  2.08931377115E+01  2.14091982130E+01
  2.19380054088E+01  2.24798741424E+01  2.30351270338E+01  2.36040946715E+01
  2.41871158099E+01  2.47845375704E+01  2.53967156484E+01  2.60240145249E+01
  2.66668076837E+01  2.73254778334E+01  2.80004171359E+01  2.86920274392E+01
  2.94007205169E+01  3.01269183137E+01  3.08710531960E+01  3.16335682100E+01
  3.24149173448E+01  3.32155658032E+01  3.40359902785E+01  3.48766792384E+01
  3.57381332156E+01  3.66208651060E+01  3.75254004741E+01  3.84522778659E+01
  3.94020491291E+01  4.03752797426E+01  4.13725491523E+01  4.23944511163E+01
  4.34415940589E+01  4.45146014322E+01  4.56141120875E+01  4.67407806561E+01
  4.78952779383E+01  4.90782913034E+01  5.02905250986E+01  5.15327010685E+01
  5.28055587849E+01  5.41098560869E+01  5.54463695322E+01  5.68158948597E+01
  5.82192474627E+01  5.96572628750E+01  6.11307972681E+01  6.26407279606E+01
  6.41879539412E+01  6.57733964036E+01  6.73979992947E+01  6.90627298773E+01
  7.07685793053E+01  7.25165632141E+01  7.43077223255E+01  7.61431230669E+01
  7.80238582067E+01
  </PP_R>
  <PP_RAB>
  2.54165487745E-05  2.60443375292E-05  2.66876326662E-05  2.73468171931E-05
  2.80222835777E-05  2.87144339821E-05  2.94236805015E-05  3.01504454099E-05
  3.08951614115E-05  3.16582718983E-05  3.24402312142E-05  3.32415049252E-05
  3.40625700969E-05  3.49039155783E-05  3.57660422931E-05  3.66494635377E-05
  3.75547052871E-05  3.84823065077E-05  3.94328194784E-05  4.04068101195E-05
  4.14048583295E-05  4.24275583302E-05  4.34755190210E-05  4.45493643408E-05
  4.56497336400E-05  4.67772820609E-05  4.79326809278E-05  4.91166181467E-05
  5.03297986150E-05  5.15729446407E-05  5.28467963734E-05  5.41521122438E-05
  5.54896694162E-05  5.68602642508E-05  5.82647127778E-05  5.97038511834E-05
  6.11785363076E-05  6.26896461544E-05  6.42380804144E-05  6.58247610007E-05
  6.74506325974E-05  6.91166632226E-05  7.08238448042E-05  7.25731937708E-05
  7.43657516570E-05  7.62025857229E-05  7.80847895902E-05  8.00134838931E-05
  8.19898169453E-05  8.40149654238E-05  8.60901350698E-05  8.82165614060E-05
  9.03955104727E-05  9.26282795814E-05  9.49161980871E-05  9.72606281798E-05
  9.96629656959E-05  1.02124640949E-04  1.04647119580E-04  1.07231903434E-04
  1.09880531448E-04  1.12594580575E-04  1.15375666715E-04  1.18225445683E-04
  1.21145614192E-04  1.24137910862E-04  1.27204117260E-04  1.30346058957E-04
  1.33565606613E-04  1.36864677096E-04  1.40245234621E-04  1.43709291916E-04
  1.47258911426E-04  1.50896206538E-04  1.54623342840E-04  1.58442539408E-04
  1.62356070131E-04  1.66366265064E-04  1.70475511811E-04  1.74686256952E-04
  1.79001007499E-04  1.83422332384E-04  1.87952863994E-04  1.92595299735E-04
  1.97352403638E-04  2.02227008008E-04  2.07222015106E-04  2.12340398879E-04
  2.17585206731E-04  2.22959561338E-04  2.28466662503E-04  2.34109789067E-04
  2.39892300857E-04  2.45817640688E-04  2.51889336413E-04  2.58111003022E-04
  2.64486344797E-04  2.71019157513E-04  2.77713330704E-04  2.84572849972E-04
  2.91601799366E-04  2.98804363811E-04  3.06184831597E-04  3.13747596937E-04
  3.21497162582E-04  3.29438142498E-04  3.37575264617E-04  3.45913373653E-04
  3.54457433983E-04  3.63212532602E-04  3.72183882157E-04  3.81376824046E-04
  3.90796831600E-04  4.00449513341E-04  4.10340616320E-04  4.20476029544E-04
  4.30861787473E-04  4.41504073624E-04  4.52409224242E-04  4.63583732081E-04
  4.75034250264E-04  4.86767596245E-04  4.98790755872E-04  5.11110887542E-04
  5.23735326465E-04  5.36671589028E-04  5.49927377277E-04  5.63510583496E-04
  5.77429294908E-04  5.91691798493E-04  6.06306585915E-04  6.21282358588E-04
  6.36628032845E-04  6.52352745256E-04  6.68465858064E-04  6.84976964758E-04
  7.01895895787E-04  7.19232724413E-04  7.36997772706E-04  7.55201617692E-04
  7.73855097649E-04  7.92969318561E-04  8.12555660730E-04  8.32625785550E-04
  8.53191642453E-04  8.74265476021E-04  8.95859833279E-04  9.17987571161E-04
  9.40661864169E-04  9.63896212214E-04  9.87704448655E-04  1.01210074854E-03
  1.03709963703E-03  1.06271599806E-03  1.08896508321E-03  1.11586252077E-03
  1.14342432503E-03  1.17166690586E-03  1.20060707843E-03  1.23026207327E-03
  1.26064954648E-03  1.29178759028E-03  1.32369474376E-03  1.35639000393E-03
  1.38989283703E-03  1.42422319010E-03  1.45940150290E-03  1.49544872002E-03
  1.53238630340E-03  1.57023624510E-03  1.60902108035E-03  1.64876390104E-03
  1.68948836939E-03  1.73121873212E-03  1.77397983480E-03  1.81779713672E-03
  1.86269672600E-03  1.90870533513E-03  1.95585035690E-03  2.00415986072E-03
  2.05366260928E-03  2.10438807573E-03  2.15636646120E-03  2.20962871279E-03
  2.26420654200E-03  2.32013244358E-03  2.37743971494E-03  2.43616247590E-03
  2.49633568906E-03  2.55799518057E-03  2.62117766153E-03  2.68592074977E-03
  2.75226299229E-03  2.82024388820E-03  2.88990391224E-03  2.96128453887E-03
  3.03442826699E-03  3.10937864518E-03  3.18618029772E-03  3.26487895107E-03
  3.34552146116E-03  3.42815584125E-03  3.51283129053E-03  3.59959822341E-03
  3.68850829952E-03  3.77961445452E-03  3.87297093155E-03  3.96863331356E-03
  4.06665855640E-03  4.16710502275E-03  4.27003251681E-03  4.37550231997E-03
  4.48357722728E-03  4.59432158479E-03  4.70780132794E-03  4.82408402074E-03
  4.94323889605E-03  5.06533689678E-03  5.19045071813E-03  5.31865485087E-03
  5.45002562568E-03  5.58464125864E-03  5.72258189773E-03  5.86392967060E-03
  6.00876873346E-03  6.15718532118E-03  6.30926779861E-03  6.46510671324E-03
  6.62479484906E-03  6.78842728183E-03  6.95610143569E-03  7.12791714115E-03
  7.30397669454E-03  7.48438491889E-03  7.66924922639E-03  7.85867968228E-03
  8.05278907043E-03  8.25169296047E-03  8.45550977660E-03  8.66436086808E-03
  8.87837058152E-03  9.09766633488E-03  9.32237869336E-03  9.55264144708E-03
  9.78859169083E-03  1.00303699056E-02  1.02781200423E-02  1.05319896073E-02
  1.07921297506E-02  1.10586953554E-02  1.13318451307E-02  1.16117417054E-02
  1.18985517256E-02  1.21924459532E-02  1.24935993682E-02  1.28021912726E-02
  1.31184053971E-02  1.34424300104E-02  1.37744580316E-02  1.41146871450E-02
  1.44633199175E-02  1.48205639195E-02  1.51866318483E-02  1.55617416549E-02
  1.59461166738E-02  1.63399857556E-02  1.67435834038E-02  1.71571499139E-02
  1.75809315168E-02  1.80151805252E-02  1.84601554842E-02  1.89161213246E-02
  1.93833495214E-02  1.98621182545E-02  2.03527125754E-02  2.08554245760E-02
  2.13705535631E-02  2.18984062361E-02  2.24392968701E-02  2.29935475028E-02
  2.35614881261E-02  2.41434568828E-02  2.47398002678E-02  2.53508733345E-02
  2.59770399058E-02  2.66186727915E-02  2.72761540094E-02  2.79498750135E-02
  2.86402369263E-02  2.93476507784E-02  3.00725377526E-02  3.08153294351E-02
  3.15764680722E-02  3.23564068335E-02  3.31556100823E-02  3.39745536514E-02
  3.48137251265E-02  3.56736241372E-02  3.65547626534E-02  3.74576652909E-02
  3.83828696236E-02  3.93309265033E-02  4.03024003879E-02  4.12978696775E-02
  4.23179270585E-02  4.33631798569E-02  4.44342503993E-02  4.55317763842E-02
  4.66564112609E-02  4.78088246190E-02  4.89897025871E-02  5.01997482410E-02
  5.14396820226E-02  5.27102421685E-02  5.40121851501E-02  5.53462861233E-02
  5.67133393906E-02  5.81141588735E-02  5.95495785977E-02  6.10204531890E-02
  6.25276583828E-02  6.40720915449E-02  6.56546722060E-02  6.72763426095E-02
  6.89380682720E-02  7.06408385583E-02  7.23856672707E-02  7.41735932523E-02
  7.60056810056E-02  7.78830213264E-02  7.98067319532E-02  8.17779582324E-02
  8.37978738008E-02  8.58676812837E-02  8.79886130114E-02  9.01619317527E-02
  9.23889314670E-02  9.46709380743E-02  9.70093102447E-02  9.94054402078E-02
  1.01860754581E-01  1.04376715219E-01  1.06954820085E-01  1.09596604141E-01
  1.12303640263E-01  1.15077540178E-01  1.17919955420E-01  1.20832578319E-01
  1.23817143004E-01  1.26875426436E-01  1.30009249469E-01  1.33220477931E-01
  1.36511023736E-01  1.39882846022E-01  1.43337952319E-01  1.46878399741E-01
  1.50506296214E-01  1.54223801731E-01  1.58033129634E-01  1.61936547936E-01
  1.65936380670E-01  1.70035009272E-01  1.74234874001E-01  1.78538475389E-01
  1.82948375731E-01  1.87467200612E-01  1.92097640467E-01  1.96842452186E-01
  2.01704460755E-01  2.06686560936E-01  2.11791718991E-01  2.17022974450E-01
  2.22383441919E-01  2.27876312934E-01  2.33504857864E-01  2.39272427853E-01
  2.45182456821E-01  2.51238463505E-01  2.57444053553E-01  2.63802921676E-01
  2.70318853841E-01  2.76995729531E-01  2.83837524051E-01  2.90848310895E-01
  2.98032264174E-01  3.05393661099E-01  3.12936884528E-01  3.20666425576E-01
  3.28586886288E-01  3.36702982379E-01  3.45019546044E-01  3.53541528831E-01
  3.62274004593E-01  3.71222172506E-01  3.80391360167E-01  3.89787026764E-01
  3.99414766325E-01  4.09280311053E-01  4.19389534736E-01  4.29748456244E-01
  4.40363243113E-01  4.51240215218E-01  4.62385848534E-01  4.73806778993E-01
  4.85509806434E-01  4.97501898653E-01  5.09790195549E-01  5.22382013379E-01
  5.35284849110E-01  5.48506384883E-01  5.62054492589E-01  5.75937238556E-01
  5.90162888349E-01  6.04739911691E-01  6.19676987510E-01  6.34983009101E-01
  6.50667089426E-01  6.66738566535E-01  6.83207009128E-01  7.00082222254E-01
  7.17374253143E-01  7.35093397196E-01  7.53250204107E-01  7.71855484148E-01
  7.90920314607E-01  8.10456046378E-01  8.30474310723E-01  8.50987026198E-01
  8.72006405745E-01  8.93544963967E-01  9.15615524577E-01  9.38231228034E-01
  9.61405539366E-01  9.85152256189E-01  1.00948551692E+00  1.03441980918E+00
  1.05996997847E+00  1.08615123694E+00  1.11297917249E+00  1.14046975805E+00
  1.16863936108E+00  1.19750475329E+00  1.22708312070E+00  1.25739207378E+00
  1.28844965801E+00  1.32027436456E+00  1.35288514136E+00  1.38630140435E+00
  1.42054304904E+00  1.45563046235E+00  1.49158453477E+00  1.52842667278E+00
  1.56617881160E+00  1.60486342825E+00  1.64450355492E+00  1.68512279273E+00
  1.72674532571E+00  1.76939593526E+00  1.81310001486E+00  1.85788358522E+00
  1.90377330978E+00
  </PP_RAB>
</PP_MESH>


<PP_LOCAL>
 -1.42761152228E+01 -1.42761156756E+01 -1.42761161027E+01 -1.42761165040E+01
 -1.42761168793E+01 -1.42761172285E+01 -1.42761175513E+01 -1.42761178474E+01
 -1.42761181166E+01 -1.42761183585E+01 -1.42761185727E+01 -1.42761187588E+01
 -1.42761189164E+01 -1.42761190449E+01 -1.42761191437E+01 -1.42761192123E+01
 -1.42761192499E+01 -1.42761192559E+01 -1.42761192295E+01 -1.42761191699E+01
 -1.42761190761E+01 -1.42761189472E+01 -1.42761187822E+01 -1.42761185799E+01
 -1.42761183393E+01 -1.42761180591E+01 -1.42761177380E+01 -1.42761173745E+01
 -1.42761169673E+01 -1.42761165146E+01 -1.42761160149E+01 -1.42761154664E+01
 -1.42761148672E+01 -1.42761142153E+01 -1.42761135087E+01 -1.42761127452E+01
 -1.42761119224E+01 -1.42761110378E+01 -1.42761100890E+01 -1.42761090730E+01
 -1.42761079872E+01 -1.42761068284E+01 -1.42761055934E+01 -1.42761042789E+01
 -1.42761028813E+01 -1.42761013969E+01 -1.42760998217E+01 -1.42760981517E+01
 -1.42760963823E+01 -1.42760945092E+01 -1.42760925274E+01 -1.42760904318E+01
 -1.42760882172E+01 -1.42760858779E+01 -1.42760834080E+01 -1.42760808014E+01
 -1.42760780514E+01 -1.42760751513E+01 -1.42760720939E+01 -1.42760688715E+01
 -1.42760654762E+01 -1.42760618997E+01 -1.42760581331E+01 -1.42760541673E+01
 -1.42760499925E+01 -1.42760455985E+01 -1.42760409747E+01 -1.42760361098E+01
 -1.42760309919E+01 -1.42760256086E+01 -1.42760199470E+01 -1.42760139933E+01
 -1.42760077331E+01 -1.42760011512E+01 -1.42759942320E+01 -1.42759869585E+01
 -1.42759793134E+01 -1.42759712783E+01 -1.42759628338E+01 -1.42759539597E+01
 -1.42759446346E+01 -1.42759348361E+01 -1.42759245409E+01 -1.42759137242E+01
 -1.42759023600E+01 -1.42758904212E+01 -1.42758778793E+01 -1.42758647041E+01
 -1.42758508643E+01 -1.42758363266E+01 -1.42758210564E+01 -1.42758050172E+01
 -1.42757881706E+01 -1.42757704765E+01 -1.42757518925E+01 -1.42757323745E+01
 -1.42757118756E+01 -1.42756903471E+01 -1.42756677377E+01 -1.42756439933E+01
 -1.42756190574E+01 -1.42755928706E+01 -1.42755653703E+01 -1.42755364912E+01
 -1.42755061643E+01 -1.42754743174E+01 -1.42754408746E+01 -1.42754057564E+01
 -1.42753688791E+01 -1.42753301548E+01 -1.42752894914E+01 -1.42752467920E+01
 -1.42752019551E+01 -1.42751548740E+01 -1.42751054366E+01 -1.42750535252E+01
 -1.42749990165E+01 -1.42749417807E+01 -1.42748816817E+01 -1.42748185767E+01
 -1.42747523155E+01 -1.42746827407E+01 -1.42746096868E+01 -1.42745329803E+01
 -1.42744524388E+01 -1.42743678710E+01 -1.42742790761E+01 -1.42741858430E+01
 -1.42740879505E+01 -1.42739851660E+01 -1.42738772455E+01 -1.42737639329E+01
 -1.42736449592E+01 -1.42735200422E+01 -1.42733888856E+01 -1.42732511782E+01
 -1.42731065935E+01 -1.42729547888E+01 -1.42727954042E+01 -1.42726280620E+01
 -1.42724523658E+01 -1.42722678995E+01 -1.42720742261E+01 -1.42718708873E+01
 -1.42716574017E+01 -1.42714332643E+01 -1.42711979449E+01 -1.42709508871E+01
 -1.42706915067E+01 -1.42704191908E+01 -1.42701332962E+01 -1.42698331474E+01
 -1.42695180360E+01 -1.42691872182E+01 -1.42688399135E+01 -1.42684753028E+01
 -1.42680925263E+01 -1.42676906819E+01 -1.42672688229E+01 -1.42668259557E+01
 -1.42663610376E+01 -1.42658729743E+01 -1.42653606175E+01 -1.42648227622E+01
 -1.42642581438E+01 -1.42636654350E+01 -1.42630432432E+01 -1.42623901066E+01
 -1.42617044913E+01 -1.42609847873E+01 -1.42602293051E+01 -1.42594362711E+01
 -1.42586038240E+01 -1.42577300098E+01 -1.42568127777E+01 -1.42558499745E+01
 -1.42548393395E+01 -1.42537784993E+01 -1.42526649616E+01 -1.42514961088E+01
 -1.42502691918E+01 -1.42489813226E+01 -1.42476294669E+01 -1.42462104361E+01
 -1.42447208789E+01 -1.42431572722E+01 -1.42415159111E+01 -1.42397928988E+01
 -1.42379841353E+01 -1.42360853057E+01 -1.42340918667E+01 -1.42319990334E+01
 -1.42298017637E+01 -1.42274947429E+01 -1.42250723653E+01 -1.42225287160E+01
 -1.42198575500E+01 -1.42170522700E+01 -1.42141059021E+01 -1.42110110693E+01
 -1.42077599630E+01 -1.42043443112E+01 -1.42007553449E+01 -1.41969837598E+01
 -1.41930196763E+01 -1.41888525942E+01 -1.41844713438E+01 -1.41798640327E+01
 -1.41750179868E+01 -1.41699196866E+01 -1.41645546964E+01 -1.41589075879E+01
 -1.41529618560E+01 -1.41466998271E+01 -1.41401025582E+01 -1.41331497277E+01
 -1.41258195154E+01 -1.41180884723E+01 -1.41099313780E+01 -1.41013210865E+01
 -1.40922283581E+01 -1.40826216769E+01 -1.40724670537E+01 -1.40617278119E+01
 -1.40503643574E+01 -1.40383339298E+01 -1.40255903354E+01 -1.40120836606E+01
 -1.39977599651E+01 -1.39825609547E+01 -1.39664236333E+01 -1.39492799336E+01
 -1.39310563268E+01 -1.39116734126E+01 -1.38910454885E+01 -1.38690801023E+01
 -1.38456775868E+01 -1.38207305821E+01 -1.37941235468E+01 -1.37657322628E+01
 -1.37354233399E+01 -1.37030537250E+01 -1.36684702256E+01 -1.36315090548E+01
 -1.35919954104E+01 -1.35497431006E+01 -1.35045542306E+01 -1.34562189682E+01
 -1.34045154088E+01 -1.33492095599E+01 -1.32900554745E+01 -1.32267955575E+01
 -1.31591610814E+01 -1.30868729419E+01 -1.30096426952E+01 -1.29271739159E+01
 -1.28391639208E+01 -1.27453059045E+01 -1.26452915358E+01 -1.25388140630E+01
 -1.24255719788E+01 -1.23052732904E+01 -1.21776404404E+01 -1.20424159150E+01
 -1.18993685701E+01 -1.17483006919E+01 -1.15890557932E+01 -1.14215271265E+01
 -1.12456668680E+01 -1.10614958935E+01 -1.08691140305E+01 -1.06687106196E+01
 -1.04605751648E+01 -1.02451077854E+01 -1.00228291039E+01 -9.79438911718E+00
 -9.56057449483E+00 -9.32231363390E+00 -9.08067866867E+00 -8.83688349139E+00
 -8.59227668528E+00 -8.34832811056E+00 -8.10660773028E+00 -7.86875513443E+00
 -7.63643815463E+00 -7.41129901453E+00 -7.19488672340E+00 -6.98857502862E+00
 -6.79346639466E+00 -6.61028445384E+00 -6.43926056214E+00 -6.28002500608E+00
 -6.13152071384E+00 -5.99196788081E+00 -5.85892281812E+00 -5.72949498121E+00
 -5.60081442204E+00 -5.47088048501E+00 -5.33997528924E+00 -5.21124054578E+00
 -5.08561325311E+00 -4.96301743512E+00 -4.84337919492E+00 -4.72662661162E+00
 -4.61268965003E+00 -4.50150008100E+00 -4.39299141079E+00 -4.28709881780E+00
 -4.18375909554E+00 -4.08291060069E+00 -3.98449320535E+00 -3.88844825291E+00
 -3.79471851670E+00 -3.70324816120E+00 -3.61398270522E+00 -3.52686898686E+00
 -3.44185512994E+00 -3.35889051174E+00 -3.27792573186E+00 -3.19891258212E+00
 -3.12180401733E+00 -3.04655412698E+00 -2.97311810766E+00 -2.90145223619E+00
 -2.83151384353E+00 -2.76326128926E+00 -2.69665393677E+00 -2.63165212905E+00
 -2.56821716499E+00 -2.50631127642E+00 -2.44589760554E+00 -2.38694018301E+00
 -2.32940390651E+00 -2.27325451987E+00 -2.21845859263E+00 -2.16498350017E+00
 -2.11279740429E+00 -2.06186923420E+00 -2.01216866810E+00 -1.96366611506E+00
 -1.91633269743E+00 -1.87014023366E+00 -1.82506122149E+00 -1.78106882159E+00
 -1.73813684161E+00 -1.69623972051E+00 -1.65535251343E+00 -1.61545087677E+00
 -1.57651105375E+00 -1.53850986020E+00 -1.50142467083E+00 -1.46523340571E+00
 -1.42991451713E+00 -1.39544697681E+00 -1.36181026330E+00 -1.32898434986E+00
 -1.29694969246E+00 -1.26568721817E+00 -1.23517831382E+00 -1.20540481489E+00
 -1.17634899472E+00 -1.14799355394E+00 -1.12032161017E+00 -1.09331668797E+00
 -1.06696270906E+00 -1.04124398269E+00 -1.01614519634E+00 -9.91651406596E-01
 -9.67748030249E-01 -9.44420835609E-01 -9.21655934038E-01 -8.99439771678E-01
 -8.77759121380E-01 -8.56601074832E-01 -8.35953034870E-01 -8.15802707983E-01
 -7.96138096987E-01 -7.76947493888E-01 -7.58219472908E-01 -7.39942883681E-01
 -7.22106844619E-01 -7.04700736429E-01 -6.87714195793E-01 -6.71137109196E-01
 -6.54959606905E-01 -6.39172057095E-01 -6.23765060110E-01 -6.08729442871E-01
 -5.94056253412E-01 -5.79736755550E-01 -5.65762423685E-01 -5.52124937723E-01
 -5.38816178123E-01 -5.25828221063E-01 -5.13153333720E-01 -5.00783969669E-01
 -4.88712764389E-01 -4.76932530876E-01 -4.65436255369E-01 -4.54217093167E-01
 -4.43268364563E-01 -4.32583550857E-01 -4.22156290482E-01 -4.11980375214E-01
 -4.02049746476E-01 -3.92358491730E-01 -3.82900840959E-01 -3.73671163227E-01
 -3.64663963333E-01 -3.55873878533E-01 -3.47295675352E-01 -3.38924246464E-01
 -3.30754607655E-01 -3.22781894852E-01 -3.15001361230E-01 -3.07408374382E-01
 -2.99998413567E-01 -2.92767067012E-01 -2.85710029289E-01 -2.78823098750E-01
 -2.72102175026E-01 -2.65543256589E-01 -2.59142438361E-01 -2.52895909399E-01
 -2.46799950619E-01 -2.40850932584E-01 -2.35045313344E-01 -2.29379636327E-01
 -2.23850528279E-01 -2.18454697256E-01 -2.13188930669E-01 -2.08050093363E-01
 -2.03035125757E-01 -1.98141042019E-01 -1.93364928290E-01 -1.88703940948E-01
 -1.84155304917E-01 -1.79716312010E-01 -1.75384319323E-01 -1.71156747656E-01
 -1.67031079980E-01 -1.63004859940E-01 -1.59075690387E-01 -1.55241231958E-01
 -1.51499201677E-01 -1.47847371598E-01 -1.44283567481E-01 -1.40805667494E-01
 -1.37411600951E-01 -1.34099347078E-01 -1.30866933813E-01 -1.27712436628E-01
 -1.24633977387E-01 -1.21629723223E-01 -1.18697885452E-01 -1.15836718505E-01
 -1.13044518889E-01 -1.10319624172E-01 -1.07660411995E-01 -1.05065299107E-01
 -1.02532740419E-01
</PP_LOCAL>


<PP_NONLOCAL>
  <PP_BETA>
    1    0             Beta    L
   377
  7.20563511418E-03  7.38361430150E-03  7.56598957474E-03  7.75286951724E-03
  7.94436539892E-03  8.14059123797E-03  8.34166386348E-03  8.54770299199E-03
  8.75883129682E-03  8.97517448137E-03  9.19686135397E-03  9.42402390458E-03
  9.65679738338E-03  9.89532038128E-03  1.01397349125E-02  1.03901864990E-02
  1.06468242574E-02  1.09098009874E-02  1.11792732631E-02  1.14554015260E-02
  1.17383501806E-02  1.20282876925E-02  1.23253866882E-02  1.26298240586E-02
  1.29417810637E-02  1.32614434409E-02  1.35890015155E-02  1.39246503140E-02
  1.42685896802E-02  1.46210243945E-02  1.49821642953E-02  1.53522244045E-02
  1.57314250552E-02  1.61199920232E-02  1.65181566611E-02  1.69261560363E-02
  1.73442330723E-02  1.77726366930E-02  1.82116219713E-02  1.86614502808E-02
  1.91223894516E-02  1.95947139298E-02  2.00787049406E-02  2.05746506565E-02
  2.10828463683E-02  2.16035946613E-02  2.21372055954E-02  2.26839968898E-02
  2.32442941124E-02  2.38184308735E-02  2.44067490246E-02  2.50095988621E-02
  2.56273393362E-02  2.62603382639E-02  2.69089725494E-02  2.75736284073E-02
  2.82547015938E-02  2.89525976418E-02  2.96677321028E-02  3.04005307946E-02
  3.11514300546E-02  3.19208770004E-02  3.27093297958E-02  3.35172579240E-02
  3.43451424672E-02  3.51934763938E-02  3.60627648516E-02  3.69535254695E-02
  3.78662886656E-02  3.88015979635E-02  3.97600103164E-02  4.07420964393E-02
  4.17484411491E-02  4.27796437130E-02  4.38363182066E-02  4.49190938796E-02
  4.60286155310E-02  4.71655438942E-02  4.83305560308E-02  4.95243457344E-02
  5.07476239449E-02  5.20011191726E-02  5.32855779328E-02  5.46017651915E-02
  5.59504648219E-02  5.73324800727E-02  5.87486340471E-02  6.01997701948E-02
  6.16867528157E-02  6.32104675758E-02  6.47718220368E-02  6.63717461981E-02