<PP_INFO>
Generated using Fritz-Haber code                                                
Author: unknown    Generation date: as well                                     
strontium, fhi98PP : Trouiller-Martins-type, LDA Ceperley/Alder Perdew/Wang (199
    1        The Pseudo was generated with a Scalar-Relativistic Calculation
nl pn  l   occ               Rcut            Rcut US             E pseu
4s  0  0  2.00      0.00000000000      0.00000000000      0.00000000000
4p  0  1  6.00      0.00000000000      0.00000000000      0.00000000000
5s  0  2  2.00      0.00000000000      0.00000000000      0.00000000000
4d  0  3  0.00      0.00000000000      0.00000000000      0.00000000000
</PP_INFO>


<PP_HEADER>
   0                   Version Number
  Sr                   Element
   NC                  Norm - Conserving pseudopotential
    T                  Nonlinear Core Correction
SLA  PW   NOGX NOGC    PW   Exchange-Correlation functional
    2.00000000000      Z valence
    0.00000000000      Total energy
  0.0000000  0.0000000 Suggested cutoff for wfc and rho
    3                  Max angular momentum component
  537                  Number of points in mesh
    4    3             Number of Wavefunctions, Number of Projectors
 Wavefunctions         nl  l   occ
                       4s  0  2.00
                       4p  1  6.00
                       5s  2  2.00
                       4d  3  0.00
</PP_HEADER>


<PP_MESH>
  <PP_R>
  1.64473684211E-04  1.68536184211E-04  1.72699027961E-04  1.76964693951E-04
  1.81335721892E-04  1.85814714222E-04  1.90404337664E-04  1.95107324804E-04
  1.99926475727E-04  2.04864659677E-04  2.09924816771E-04  2.15109959745E-04
  2.20423175751E-04  2.25867628192E-04  2.31446558609E-04  2.37163288606E-04
  2.43021221835E-04  2.49023846014E-04  2.55174735011E-04  2.61477550965E-04
  2.67936046474E-04  2.74554066822E-04  2.81335552273E-04  2.88284540414E-04
  2.95405168562E-04  3.02701676226E-04  3.10178407628E-04  3.17839814297E-04
  3.25690457710E-04  3.33735012015E-04  3.41978266812E-04  3.50425130002E-04
  3.59080630713E-04  3.67949922292E-04  3.77038285373E-04  3.86351131021E-04
  3.95894003957E-04  4.05672585855E-04  4.15692698726E-04  4.25960308384E-04
  4.36481528001E-04  4.47262621743E-04  4.58310008500E-04  4.69630265710E-04
  4.81230133273E-04  4.93116517565E-04  5.05296495549E-04  5.17777318989E-04
  5.30566418768E-04  5.43671409312E-04  5.57100093122E-04  5.70860465422E-04
  5.84960718918E-04  5.99409248675E-04  6.14214657117E-04  6.29385759148E-04
  6.44931587399E-04  6.60861397608E-04  6.77184674128E-04  6.93911135579E-04
  7.11050740628E-04  7.28613693922E-04  7.46610452162E-04  7.65051730330E-04
  7.83948508069E-04  8.03312036219E-04  8.23153843513E-04  8.43485743448E-04
  8.64319841311E-04  8.85668541391E-04  9.07544554364E-04  9.29960904857E-04
  9.52930939207E-04  9.76468333405E-04  1.00058710124E-03  1.02530160264E-03
  1.05062655223E-03  1.07657702807E-03  1.10316848066E-03  1.13041674213E-03
  1.15833803566E-03  1.18694898514E-03  1.21626662508E-03  1.24630841072E-03
  1.27709222846E-03  1.30863640650E-03  1.34095972574E-03  1.37408143097E-03
  1.40802124231E-03  1.44279936700E-03  1.47843651136E-03  1.51495389320E-03
  1.55237325436E-03  1.59071687374E-03  1.63000758052E-03  1.67026876776E-03
  1.71152440632E-03  1.75379905916E-03  1.79711789592E-03  1.84150670795E-03
  1.88699192364E-03  1.93360062415E-03  1.98136055957E-03  2.03030016539E-03
  2.08044857947E-03  2.13183565939E-03  2.18449200017E-03  2.23844895258E-03
  2.29373864171E-03  2.35039398616E-03  2.40844871761E-03  2.46793740094E-03
  2.52889545474E-03  2.59135917247E-03  2.65536574403E-03  2.72095327791E-03
  2.78816082388E-03  2.85702839623E-03  2.92759699761E-03  2.99990864345E-03
  3.07400638695E-03  3.14993434471E-03  3.22773772302E-03  3.30746284478E-03
  3.38915717704E-03  3.47286935932E-03  3.55864923249E-03  3.64654786853E-03
  3.73661760089E-03  3.82891205563E-03  3.92348618340E-03  4.02039629213E-03
  4.11970008055E-03  4.22145667254E-03  4.32572665235E-03  4.43257210066E-03
  4.54205663155E-03  4.65424543035E-03  4.76920529248E-03  4.88700466320E-03
  5.00771367838E-03  5.13140420624E-03  5.25814989013E-03  5.38802619242E-03
  5.52111043937E-03  5.65748186723E-03  5.79722166935E-03  5.94041304458E-03
  6.08714124678E-03  6.23749363558E-03  6.39155972838E-03  6.54943125367E-03
  6.71120220563E-03  6.87696890011E-03  7.04683003194E-03  7.22088673373E-03
  7.39924263606E-03  7.58200392917E-03  7.76927942622E-03  7.96118062804E-03
  8.15782178956E-03  8.35931998776E-03  8.56579519146E-03  8.77737033269E-03
  8.99417137990E-03  9.21632741299E-03  9.44397070009E-03  9.67723677638E-03
  9.91626452476E-03  1.01611962585E-02  1.04121778061E-02  1.06693585979E-02
  1.09328917553E-02  1.12029341816E-02  1.14796466559E-02  1.17631939283E-02
  1.20537448184E-02  1.23514723154E-02  1.26565536816E-02  1.29691705575E-02
  1.32895090703E-02  1.36177599443E-02  1.39541186149E-02  1.42987853447E-02
  1.46519653427E-02  1.50138688867E-02  1.53847114482E-02  1.57647138210E-02
  1.61541022523E-02  1.65531085780E-02  1.69619703598E-02  1.73809310277E-02
  1.78102400241E-02  1.82501529527E-02  1.87009317306E-02  1.91628447444E-02
  1.96361670096E-02  2.01211803347E-02  2.06181734890E-02  2.11274423742E-02
  2.16492902008E-02  2.21840276688E-02  2.27319731522E-02  2.32934528890E-02
  2.38688011754E-02  2.44583605644E-02  2.50624820704E-02  2.56815253775E-02
  2.63158590543E-02  2.69658607730E-02  2.76319175341E-02  2.83144258972E-02
  2.90137922168E-02  2.97304328846E-02  3.04647745768E-02  3.12172545089E-02
  3.19883206952E-02  3.27784322164E-02  3.35880594922E-02  3.44176845616E-02
  3.52678013703E-02  3.61389160641E-02  3.70315472909E-02  3.79462265090E-02
  3.88834983038E-02  3.98439207119E-02  4.08280655535E-02  4.18365187726E-02
  4.28698807863E-02  4.39287668418E-02  4.50138073827E-02  4.61256484251E-02
  4.72649519412E-02  4.84323962541E-02  4.96286764416E-02  5.08545047497E-02
  5.21106110170E-02  5.33977431092E-02  5.47166673640E-02  5.60681690479E-02
  5.74530528233E-02  5.88721432281E-02  6.03262851658E-02  6.18163444094E-02
  6.33432081163E-02  6.49077853568E-02  6.65110076551E-02  6.81538295442E-02
  6.98372291339E-02  7.15622086935E-02  7.33297952483E-02  7.51410411909E-02
  7.69970249083E-02  7.88988514235E-02  8.08476530537E-02  8.28445900841E-02
  8.48908514592E-02  8.69876554903E-02  8.91362505809E-02  9.13379159702E-02
  9.35939624947E-02  9.59057333683E-02  9.82746049825E-02  1.00701987726E-01
  1.03189326822E-01  1.05738103195E-01  1.08349834344E-01  1.11026075252E-01
  1.13768419311E-01  1.16578499268E-01  1.19457988200E-01  1.22408600508E-01
  1.25432092941E-01  1.28530265636E-01  1.31704963198E-01  1.34958075789E-01
  1.38291540261E-01  1.41707341305E-01  1.45207512635E-01  1.48794138197E-01
  1.52469353411E-01  1.56235346440E-01  1.60094359497E-01  1.64048690177E-01
  1.68100692824E-01  1.72252779937E-01  1.76507423601E-01  1.80867156964E-01
  1.85334575741E-01  1.89912339762E-01  1.94603174554E-01  1.99409872966E-01
  2.04335296828E-01  2.09382378660E-01  2.14554123413E-01  2.19853610261E-01
  2.25283994434E-01  2.30848509097E-01  2.36550467271E-01  2.42393263813E-01
  2.48380377429E-01  2.54515372752E-01  2.60801902459E-01  2.67243709449E-01
  2.73844629073E-01  2.80608591411E-01  2.87539623619E-01  2.94641852322E-01
  3.01919506075E-01  3.09376917875E-01  3.17018527746E-01  3.24848885381E-01
  3.32872652850E-01  3.41094607376E-01  3.49519644178E-01  3.58152779389E-01
  3.66999153040E-01  3.76064032120E-01  3.85352813713E-01  3.94871028212E-01
  4.04624342609E-01  4.14618563871E-01  4.24859642399E-01  4.35353675566E-01
  4.46106911353E-01  4.57125752063E-01  4.68416758139E-01  4.79986652065E-01
  4.91842322371E-01  5.03990827734E-01  5.16439401179E-01  5.29195454388E-01
  5.42266582111E-01  5.55660566690E-01  5.69385382687E-01  5.83449201639E-01
  5.97860396920E-01  6.12627548724E-01  6.27759449177E-01  6.43265107572E-01
  6.59153755729E-01  6.75434853495E-01  6.92118094377E-01  7.09213411308E-01
  7.26730982567E-01  7.44681237836E-01  7.63074864411E-01  7.81922813562E-01
  8.01236307057E-01  8.21026843841E-01  8.41306206884E-01  8.62086470194E-01
  8.83380006008E-01  9.05199492156E-01  9.27557919612E-01  9.50468600227E-01
  9.73945174652E-01  9.98001620466E-01  1.02265226049E+00  1.04791177133E+00
  1.07379519208E+00  1.10031793332E+00  1.12749578628E+00  1.15534493220E+00
  1.18388195202E+00  1.21312383624E+00  1.24308799499E+00  1.27379226847E+00
  1.30525493750E+00  1.33749473446E+00  1.37053085440E+00  1.40438296650E+00
  1.43907122577E+00  1.47461628505E+00  1.51103930729E+00  1.54836197818E+00
  1.58660651904E+00  1.62579570006E+00  1.66595285385E+00  1.70710188934E+00
  1.74926730601E+00  1.79247420847E+00  1.83674832142E+00  1.88211600496E+00
  1.92860427028E+00  1.97624079575E+00  2.02505394341E+00  2.07507277581E+00
  2.12632707337E+00  2.17884735209E+00  2.23266488168E+00  2.28781170426E+00
  2.34432065336E+00  2.40222537349E+00  2.46156034022E+00  2.52236088062E+00
  2.58466319437E+00  2.64850437527E+00  2.71392243334E+00  2.78095631745E+00
  2.84964593849E+00  2.92003219317E+00  2.99215698834E+00  3.06606326595E+00
  3.14179502862E+00  3.21939736583E+00  3.29891648076E+00  3.38039971784E+00
  3.46389559087E+00  3.54945381196E+00  3.63712532112E+00  3.72696231655E+00
  3.81901828577E+00  3.91334803743E+00  4.01000773395E+00  4.10905492498E+00
  4.21054858163E+00  4.31454913160E+00  4.42111849515E+00  4.53032012198E+00
  4.64221902899E+00  4.75688183900E+00  4.87437682043E+00  4.99477392789E+00
  5.11814484391E+00  5.24456302156E+00  5.37410372819E+00  5.50684409028E+00
  5.64286313930E+00  5.78224185885E+00  5.92506323276E+00  6.07141229461E+00
  6.22137617829E+00  6.37504416989E+00  6.53250776089E+00  6.69386070258E+00
  6.85919906193E+00  7.02862127876E+00  7.20222822435E+00  7.38012326149E+00
  7.56241230605E+00  7.74920389001E+00  7.94060922609E+00  8.13674227397E+00
  8.33771980814E+00  8.54366148740E+00  8.75468992614E+00  8.97093076732E+00
  9.19251275727E+00  9.41956782238E+00  9.65223114759E+00  9.89064125693E+00
  1.01349400960E+01  1.03852731163E+01  1.06417893623E+01  1.09046415596E+01
  1.11739862061E+01  1.14499836654E+01  1.17327982619E+01  1.20225983790E+01
  1.23195565590E+01  1.26238496060E+01  1.29356586912E+01  1.32551694609E+01
  1.35825721466E+01  1.39180616786E+01  1.42618378021E+01  1.46141051958E+01
  1.49750735941E+01  1.53449579119E+01  1.57239783723E+01  1.61123606381E+01
  1.65103359459E+01  1.69181412437E+01  1.73360193324E+01  1.77642190100E+01
  1.82029952195E+01  1.86526092014E+01  1.91133286487E+01  1.95854278663E+01
  2.00691879346E+01  2.05648968766E+01  2.10728498295E+01  2.15933492202E+01
  2.21267049460E+01  2.26732345582E+01  2.32332634517E+01  2.38071250590E+01
  2.43951610480E+01  2.49977215258E+01  2.56151652475E+01  2.62478598291E+01
  2.68961819669E+01  2.75605176615E+01  2.82412624477E+01  2.89388216302E+01
  2.96536105245E+01  3.03860547044E+01  3.11365902556E+01  3.19056640349E+01
  3.26937339366E+01  3.35012691648E+01  3.43287505132E+01  3.51766706509E+01
  3.60455344160E+01  3.69358591160E+01  3.78481748362E+01  3.87830247547E+01
  3.97409654661E+01  4.07225673131E+01  4.17284147257E+01  4.27591065695E+01
  4.38152565017E+01  4.48974933373E+01  4.60064614228E+01  4.71428210199E+01
  4.83072486991E+01  4.95004377420E+01  5.07230985542E+01  5.19759590885E+01
  5.32597652780E+01  5.45752814803E+01  5.59232909329E+01  5.73045962189E+01
  5.87200197455E+01  6.01704042333E+01  6.16566132178E+01  6.31795315643E+01
  6.47400659939E+01  6.63391456240E+01  6.79777225209E+01  6.96567722672E+01
  7.13772945422E+01  7.31403137174E+01  7.49468794662E+01  7.67980673890E+01
  7.86949796535E+01
  </PP_R>
  <PP_RAB>
  4.01313928019E-06  4.11226382041E-06  4.21383673677E-06  4.31791850417E-06
  4.42457109122E-06  4.53385799718E-06  4.64584428971E-06  4.76059664366E-06
  4.87818338076E-06  4.99867451026E-06  5.12214177067E-06  5.24865867240E-06
  5.37830054161E-06  5.51114456499E-06  5.64726983575E-06  5.78675740069E-06
  5.92969030849E-06  6.07615365910E-06  6.22623465448E-06  6.38002265045E-06
  6.53760920992E-06  6.69908815740E-06  6.86455563489E-06  7.03411015907E-06
  7.20785268000E-06  7.38588664120E-06  7.56831804123E-06  7.75525549685E-06
  7.94681030762E-06  8.14309652222E-06  8.34423100632E-06  8.55033351218E-06
  8.76152674993E-06  8.97793646065E-06  9.19969149123E-06  9.42692387106E-06
  9.65976889068E-06  9.89836518228E-06  1.01428548023E-05  1.03933833159E-05
  1.06500998838E-05  1.09131573509E-05  1.11827123375E-05  1.14589253322E-05
  1.17419607879E-05  1.20319872194E-05  1.23291773037E-05  1.26337079831E-05
  1.29457605703E-05  1.32655208564E-05  1.35931792215E-05  1.39289307483E-05
  1.42729753378E-05  1.46255178286E-05  1.49867681190E-05  1.53569412916E-05
  1.57362577415E-05  1.61249433077E-05  1.65232294074E-05  1.69313531737E-05
  1.73495575971E-05  1.77780916698E-05  1.82172105340E-05  1.86671756342E-05
  1.91282548724E-05  1.96007227677E-05  2.00848606201E-05  2.05809566774E-05
  2.10893063073E-05  2.16102121731E-05  2.21439844138E-05  2.26909408288E-05
  2.32514070673E-05  2.38257168218E-05  2.44142120273E-05  2.50172430644E-05
  2.56351689681E-05  2.62683576416E-05  2.69171860754E-05  2.75820405714E-05
  2.82633169735E-05  2.89614209028E-05  2.96767679991E-05  3.04097841687E-05
  3.11609058376E-05  3.19305802118E-05  3.27192655431E-05  3.35274314020E-05
  3.43555589576E-05  3.52041412639E-05  3.60736835531E-05  3.69647035368E-05
  3.78777317142E-05  3.88133116875E-05  3.97720004862E-05  4.07543688982E-05
  4.17610018100E-05  4.27924985547E-05  4.38494732690E-05  4.49325552588E-05
  4.60423893737E-05  4.71796363912E-05  4.83449734100E-05  4.95390942533E-05
  5.07627098813E-05  5.20165488154E-05  5.33013575711E-05  5.46179011031E-05
  5.59669632604E-05  5.73493472529E-05  5.87658761301E-05  6.02173932705E-05
  6.17047628843E-05  6.32288705275E-05  6.47906236295E-05  6.63909520332E-05
  6.80308085484E-05  6.97111695196E-05  7.14330354067E-05  7.31974313812E-05
  7.50054079364E-05  7.68580415124E-05  7.87564351377E-05  8.07017190856E-05
  8.26950515471E-05  8.47376193203E-05  8.68306385175E-05  8.89753552889E-05
  9.11730465645E-05  9.34250208146E-05  9.57326188288E-05  9.80972145138E-05
  1.00520215712E-04  1.03003065040E-04  1.05547240747E-04  1.08154257593E-04
  1.10825667756E-04  1.13563061749E-04  1.16368069375E-04  1.19242360688E-04
  1.22187646997E-04  1.25205681878E-04  1.28298262220E-04  1.31467229297E-04
  1.34714469861E-04  1.38041917267E-04  1.41451552623E-04  1.44945405973E-04
  1.48525557500E-04  1.52194138771E-04  1.55953333998E-04  1.59805381348E-04
  1.63752574267E-04  1.67797262852E-04  1.71941855244E-04  1.76188819069E-04
  1.80540682900E-04  1.85000037767E-04  1.89569538700E-04  1.94251906306E-04
  1.99049928392E-04  2.03966461623E-04  2.09004433225E-04  2.14166842726E-04
  2.19456763741E-04  2.24877345806E-04  2.30431816247E-04  2.36123482108E-04
  2.41955732116E-04  2.47932038700E-04  2.54055960055E-04  2.60331142269E-04
  2.66761321483E-04  2.73350326123E-04  2.80102079179E-04  2.87020600534E-04
  2.94110009368E-04  3.01374526599E-04  3.08818477406E-04  3.16446293798E-04
  3.24262517255E-04  3.32271801431E-04  3.40478914926E-04  3.48888744125E-04
  3.57506296105E-04  3.66336701619E-04  3.75385218149E-04  3.84657233037E-04
  3.94158266693E-04  4.03893975880E-04  4.13870157084E-04  4.24092749964E-04
  4.34567840889E-04  4.45301666559E-04  4.56300617723E-04  4.67571242980E-04
  4.79120252682E-04  4.90954522923E-04  5.03081099639E-04  5.15507202800E-04
  5.28240230710E-04  5.41287764408E-04  5.54657572189E-04  5.68357614222E-04
  5.82396047293E-04  5.96781229661E-04  6.11521726034E-04  6.26626312667E-04
  6.42103982590E-04  6.57963950960E-04  6.74215660549E-04  6.90868787364E-04
  7.07933246412E-04  7.25419197599E-04  7.43337051779E-04  7.61697476958E-04
  7.80511404639E-04  7.99790036334E-04  8.19544850231E-04  8.39787608032E-04
  8.60530361950E-04  8.81785461890E-04  9.03565562799E-04  9.25883632200E-04
  9.48752957915E-04  9.72187155976E-04  9.96200178729E-04  1.02080632314E-03
  1.04602023932E-03  1.07185693924E-03  1.09833180564E-03  1.12546060123E-03
  1.15325947809E-03  1.18174498719E-03  1.21093408838E-03  1.24084416036E-03
  1.27149301112E-03  1.30289888850E-03  1.33508049104E-03  1.36805697917E-03
  1.40184798656E-03  1.43647363182E-03  1.47195453053E-03  1.50831180743E-03
  1.54556710908E-03  1.58374261667E-03  1.62286105930E-03  1.66294572747E-03
  1.70402048694E-03  1.74610979296E-03  1.78923870485E-03  1.83343290086E-03
  1.87871869351E-03  1.92512304524E-03  1.97267358446E-03  2.02139862199E-03
  2.07132716796E-03  2.12248894901E-03  2.17491442605E-03  2.22863481237E-03
  2.28368209224E-03  2.34008903991E-03  2.39788923920E-03  2.45711710341E-03
  2.51780789586E-03  2.57999775089E-03  2.64372369534E-03  2.70902367061E-03
  2.77593655528E-03  2.84450218819E-03  2.91476139224E-03  2.98675599863E-03
  3.06052887179E-03  3.13612393493E-03  3.21358619612E-03  3.29296177516E-03
  3.37429793101E-03  3.45764308991E-03  3.54304687423E-03  3.63056013202E-03
  3.72023496728E-03  3.81212477097E-03  3.90628425282E-03  4.00276947386E-03
  4.10163787987E-03  4.20294833550E-03  4.30676115939E-03  4.41313816002E-03
  4.52214267258E-03  4.63383959659E-03  4.74829543462E-03  4.86557833186E-03
  4.98575811666E-03  5.10890634214E-03  5.23509632879E-03  5.36440320811E-03
  5.49690396735E-03  5.63267749534E-03  5.77180462948E-03  5.91436820383E-03
  6.06045309846E-03  6.21014628999E-03  6.36353690336E-03  6.52071626487E-03
  6.68177795661E-03  6.84681787214E-03  7.01593427358E-03  7.18922785014E-03
  7.36680177804E-03  7.54876178195E-03  7.73521619797E-03  7.92627603806E-03
  8.12205505620E-03  8.32266981609E-03  8.52823976054E-03  8.73888728263E-03
  8.95473779851E-03  9.17591982213E-03  9.40256504174E-03  9.63480839827E-03
  9.87278816571E-03  1.01166460334E-02  1.03665271904E-02  1.06225804120E-02
  1.08849581482E-02  1.11538166145E-02  1.14293158848E-02  1.17116199872E-02
  1.20008970009E-02  1.22973191568E-02  1.26010629400E-02  1.29123091946E-02
  1.32312432317E-02  1.35580549395E-02  1.38929388965E-02  1.42360944873E-02
  1.45877260211E-02  1.49480428538E-02  1.53172595123E-02  1.56955958223E-02
  1.60832770391E-02  1.64805339820E-02  1.68876031713E-02  1.73047269696E-02
  1.77321537258E-02  1.81701379228E-02  1.86189403295E-02  1.90788281556E-02
  1.95500752111E-02  2.00329620688E-02  2.05277762319E-02  2.10348123048E-02
  2.15543721688E-02  2.20867651613E-02  2.26323082608E-02  2.31913262749E-02
  2.37641520338E-02  2.43511265891E-02  2.49525994158E-02  2.55689286214E-02
  2.62004811584E-02  2.68476330430E-02  2.75107695791E-02  2.81902855877E-02
  2.88865856417E-02  2.96000843071E-02  3.03312063895E-02  3.10803871873E-02
  3.18480727508E-02  3.26347201478E-02  3.34407977354E-02  3.42667854395E-02
  3.51131750398E-02  3.59804704633E-02  3.68691880838E-02  3.77798570294E-02
  3.87130194981E-02  3.96692310797E-02  4.06490610873E-02  4.16530928962E-02
  4.26819242907E-02  4.37361678207E-02  4.48164511659E-02  4.59234175097E-02
  4.70577259222E-02  4.82200517525E-02  4.94110870307E-02  5.06315408804E-02
  5.18821399401E-02  5.31636287967E-02  5.44767704279E-02  5.58223466575E-02
  5.72011586200E-02  5.86140272379E-02  6.00617937106E-02  6.15453200153E-02
  6.30654894197E-02  6.46232070083E-02  6.62194002214E-02  6.78550194069E-02
  6.95310383863E-02  7.12484550344E-02  7.30082918738E-02  7.48115966830E-02
  7.66594431211E-02  7.85529313662E-02  8.04931887709E-02  8.24813705336E-02
  8.45186603858E-02  8.66062712973E-02  8.87454461983E-02  9.09374587194E-02
  9.31836139498E-02  9.54852492144E-02  9.78437348700E-02  1.00260475121E-01
  1.02736908857E-01  1.05274510506E-01  1.07874790915E-01  1.10539298251E-01
  1.13269618917E-01  1.16067378505E-01  1.18934242754E-01  1.21871918550E-01
  1.24882154938E-01  1.27966744165E-01  1.31127522746E-01  1.34366372558E-01
  1.37685221960E-01  1.41086046942E-01  1.44570872302E-01  1.48141772847E-01
  1.51800874637E-01  1.55550356240E-01  1.59392450039E-01  1.63329443555E-01
  1.67363680811E-01  1.71497563727E-01  1.75733553551E-01  1.80074172324E-01
  1.84522004380E-01  1.89079697889E-01  1.93749966427E-01  1.98535590597E-01
  2.03439419685E-01  2.08464373351E-01  2.13613443373E-01  2.18889695424E-01
  2.24296270901E-01  2.29836388793E-01  2.35513347596E-01  2.41330527281E-01
  2.47291391305E-01  2.53399488670E-01  2.59658456041E-01  2.66072019905E-01
  2.72643998796E-01  2.79378305567E-01  2.86278949714E-01  2.93350039772E-01
  3.00595785755E-01  3.08020501663E-01  3.15628608054E-01  3.23424634673E-01
  3.31413223149E-01  3.39599129761E-01  3.47987228266E-01  3.56582512804E-01
  3.65390100870E-01  3.74415236362E-01  3.83663292700E-01  3.93139776030E-01
  4.02850328498E-01  4.12800731612E-01  4.22996909682E-01  4.33444933352E-01
  4.44151023205E-01  4.55121553478E-01  4.66363055849E-01  4.77882223329E-01
  4.89685914245E-01  5.01781156327E-01  5.14175150888E-01  5.26875277115E-01
  5.39889096460E-01  5.53224357142E-01  5.66888998764E-01  5.80891157033E-01
  5.95239168612E-01  6.09941576077E-01  6.25007133006E-01  6.40444809191E-01
  6.56263795978E-01  6.72473511739E-01  6.89083607479E-01  7.06103972583E-01
  7.23544740706E-01  7.41416295802E-01  7.59729278308E-01  7.78494591482E-01
  7.97723407892E-01  8.17427176067E-01  8.37617627316E-01  8.58306782710E-01
  8.79506960243E-01  9.01230782161E-01  9.23491182481E-01  9.46301414688E-01
  9.69675059631E-01  9.93626033604E-01  1.01816859663E+00  1.04331736097E+00
  1.06908729979E+00  1.09549375609E+00  1.12255245187E+00  1.15027949743E+00
  1.17869140101E+00  1.20780507862E+00  1.23763786406E+00  1.26820751930E+00
  1.29953224503E+00  1.33163069148E+00  1.36452196956E+00  1.39822566221E+00
  1.43276183607E+00  1.46815105342E+00  1.50441438444E+00  1.54157341973E+00
  1.57965028320E+00  1.61866764520E+00  1.65864873603E+00  1.69961735981E+00
  1.74159790860E+00  1.78461537694E+00  1.82869537675E+00  1.87386415256E+00
  1.92014859713E+00
  </PP_RAB>
</PP_MESH>


<PP_NLCC>
  6.39810453120E-02  6.39810453120E-02  6.39810453120E-02  6.39810453120E-02
  6.39810453119E-02  6.39810453119E-02  6.39810453119E-02  6.39810453119E-02
  6.39810453119E-02  6.39810453119E-02  6.39810453119E-02  6.39810453119E-02
  6.39810453119E-02  6.39810453119E-02  6.39810453119E-02  6.39810453119E-02
  6.39810453119E-02  6.39810453118E-02  6.39810453118E-02  6.39810453118E-02
  6.39810453118E-02  6.39810453118E-02  6.39810453118E-02  6.39810453118E-02
  6.39810453117E-02  6.39810453117E-02  6.39810453117E-02  6.39810453117E-02
  6.39810453116E-02  6.39810453116E-02  6.39810453116E-02  6.39810453115E-02
  6.39810453115E-02  6.39810453115E-02  6.39810453114E-02  6.39810453114E-02
  6.39810453113E-02  6.39810453113E-02  6.39810453112E-02  6.39810453112E-02
  6.39810453111E-02  6.39810453110E-02  6.39810453110E-02  6.39810453109E-02
  6.39810453108E-02  6.39810453107E-02  6.39810453106E-02  6.39810453105E-02
  6.39810453104E-02  6.39810453103E-02  6.39810453101E-02  6.39810453100E-02
  6.39810453099E-02  6.39810453097E-02  6.39810453095E-02  6.39810453093E-02
  6.39810453091E-02  6.39810453089E-02  6.39810453087E-02  6.39810453084E-02
  6.39810453081E-02  6.39810453078E-02  6.39810453075E-02  6.39810453072E-02
  6.39810453068E-02  6.39810453064E-02  6.39810453060E-02  6.39810453055E-02
  6.39810453051E-02  6.39810453045E-02  6.39810453040E-02  6.39810453033E-02
  6.39810453027E-02  6.39810453020E-02  6.39810453012E-02  6.39810453004E-02
  6.39810452995E-02  6.39810452986E-02  6.39810452975E-02  6.39810452964E-02
  6.39810452953E-02  6.39810452940E-02  6.39810452926E-02  6.39810452911E-02
  6.39810452896E-02  6.39810452879E-02  6.39810452860E-02  6.39810452841E-02
  6.39810452819E-02  6.39810452796E-02  6.39810452772E-02  6.39810452745E-02
  6.39810452717E-02  6.39810452686E-02  6.39810452653E-02  6.39810452618E-02
  6.39810452580E-02  6.39810452539E-02  6.39810452495E-02  6.39810452447E-02
  6.39810452396E-02  6.39810452341E-02  6.39810452282E-02  6.39810452218E-02
  6.39810452150E-02  6.39810452076E-02  6.39810451997E-02  6.39810451912E-02
  6.39810451820E-02  6.39810451721E-02  6.39810451615E-02  6.39810451501E-02
  6.39810451378E-02  6.39810451245E-02  6.39810451103E-02  6.39810450950E-02
  6.39810450785E-02  6.39810450608E-02  6.39810450417E-02  6.39810450212E-02
  6.39810449991E-02  6.39810449753E-02  6.39810449498E-02  6.39810449223E-02
  6.39810448927E-02  6.39810448609E-02  6.39810448266E-02  6.39810447897E-02
  6.39810447501E-02  6.39810447074E-02  6.39810446615E-02  6.39810446122E-02
  6.39810445590E-02  6.39810445019E-02  6.39810444404E-02  6.39810443742E-02
  6.39810443030E-02  6.39810442264E-02  6.39810441440E-02  6.39810440553E-02
  6.39810439599E-02  6.39810438573E-02  6.39810437469E-02  6.39810436281E-02
  6.39810435002E-02  6.39810433627E-02  6.39810432147E-02  6.39810430555E-02
  6.39810428843E-02  6.39810427000E-02  6.39810425017E-02  6.39810422884E-02
  6.39810420590E-02  6.39810418121E-02  6.39810415464E-02  6.39810412606E-02
  6.39810409532E-02  6.39810406223E-02  6.39810402664E-02  6.39810398835E-02
  6.39810394716E-02  6.39810390283E-02  6.39810385515E-02  6.39810380385E-02
  6.39810374865E-02  6.39810368927E-02  6.39810362539E-02  6.39810355666E-02
  6.39810348271E-02  6.39810340316E-02  6.39810331757E-02  6.39810322549E-02
  6.39810312642E-02  6.39810301984E-02  6.39810290518E-02  6.39810278183E-02
  6.39810264912E-02  6.39810250634E-02  6.39810235274E-02  6.39810218749E-02
  6.39810200971E-02  6.39810181845E-02  6.39810161269E-02  6.39810139133E-02
  6.39810115319E-02  6.39810089700E-02  6.39810062139E-02  6.39810032488E-02
  6.39810000590E-02  6.39809966274E-02  6.39809929358E-02  6.39809889643E-02
  6.39809846919E-02  6.39809800958E-02  6.39809751514E-02  6.39809698323E-02
  6.39809641102E-02  6.39809579546E-02  6.39809513327E-02  6.39809442092E-02
  6.39809365461E-02  6.39809283026E-02  6.39809194347E-02  6.39809098953E-02
  6.39808996334E-02  6.39808885946E-02  6.39808767199E-02  6.39808639462E-02
  6.39808502054E-02  6.39808354246E-02  6.39808195249E-02  6.39808024219E-02
  6.39807840246E-02  6.39807642351E-02  6.39807429482E-02  6.39807200508E-02
  6.39806954213E-02  6.39806689286E-02  6.39806404322E-02  6.39806097807E-02
  6.39805768113E-02  6.39805413490E-02  6.39805032057E-02  6.39804621790E-02
  6.39804180512E-02  6.39803705885E-02  6.39803195391E-02  6.39802646325E-02
  6.39802055779E-02  6.39801420625E-02  6.39800737499E-02  6.39800002786E-02
  6.39799212598E-02  6.39798362755E-02  6.39797448763E-02  6.39796465791E-02
  6.39795408645E-02  6.39794271740E-02  6.39793049074E-02  6.39791734194E-02
  6.39790320161E-02  6.39788799518E-02  6.39787164250E-02  6.39785405740E-02
  6.39783514725E-02  6.39781481250E-02  6.39779294614E-02  6.39776943317E-02
  6.39774414998E-02  6.39771696373E-02  6.39768773164E-02  6.39765630028E-02
  6.39762250477E-02  6.39758616792E-02  6.39754709934E-02  6.39750509442E-02
  6.39745993335E-02  6.39741137991E-02  6.39735918034E-02  6.39730306198E-02
  6.39724273190E-02  6.39717787543E-02  6.39710815451E-02  6.39703320603E-02
  6.39695263992E-02  6.39686603722E-02  6.39677294794E-02  6.39667288879E-02
  6.39656534076E-02  6.39644974644E-02  6.39632550732E-02  6.39619198070E-02
  6.39604847650E-02  6.39589425382E-02  6.39572851723E-02  6.39555041281E-02
  6.39535902393E-02  6.39515336665E-02  6.39493238494E-02  6.39469494538E-02
  6.39443983163E-02  6.39416573847E-02  6.39387126536E-02  6.39355490965E-02
  6.39321505924E-02  6.39284998475E-02  6.39245783116E-02  6.39203660884E-02
  6.39158418402E-02  6.39109826850E-02  6.39057640878E-02  6.39001597434E-02
  6.38941414521E-02  6.38876789859E-02  6.38807399467E-02  6.38732896147E-02
  6.38652907860E-02  6.38567035999E-02  6.38474853553E-02  6.38375903135E-02
  6.38269694895E-02  6.38155704288E-02  6.38033369702E-02  6.37902089929E-02
  6.37761221476E-02  6.37610075705E-02  6.37447915794E-02  6.37273953499E-02
  6.37087345731E-02  6.36887190902E-02  6.36672525065E-02  6.36442317810E-02
  6.36195467919E-02  6.35930798764E-02  6.35647053433E-02  6.35342889575E-02
  6.35016873958E-02  6.34667476708E-02  6.34293065249E-02  6.33891897891E-02
  6.33462117098E-02  6.33001742391E-02  6.32508662889E-02  6.31980629487E-02
  6.31415246643E-02  6.30809963784E-02  6.30162066317E-02  6.29468666247E-02
  6.28726692394E-02  6.27932880213E-02  6.27083761235E-02  6.26175652113E-02
  6.25204643309E-02  6.24166587431E-02  6.23057087240E-02  6.21871483374E-02
  6.20604841803E-02  6.19251941094E-02  6.17807259512E-02  6.16264962046E-02
  6.14618887444E-02  6.12862535329E-02  6.10989053536E-02  6.08991225779E-02
  6.06861459811E-02  6.04591776233E-02  6.02173798165E-02  5.99598741986E-02
  5.96857409406E-02  5.93940181151E-02  5.90837012583E-02  5.87537431617E-02
  5.84030539338E-02  5.80305013770E-02  5.76349117300E-02  5.72150708313E-02
  5.67697257652E-02  5.62975870589E-02  5.57973315045E-02  5.52676056883E-02
  5.47070303163E-02  5.41142054335E-02  5.34877166409E-02  5.28261424246E-02
  5.21280627179E-02  5.13920688257E-02  5.06167748484E-02  4.98008307497E-02
  4.89429372185E-02  4.80418624798E-02  4.70964612129E-02  4.61056957351E-02
  4.50686596056E-02  4.39846037992E-02  4.28529655842E-02  4.16734002215E-02
  4.04458155742E-02  3.91704096770E-02  3.78477112679E-02  3.64786232123E-02
  3.50644686718E-02  3.36070397529E-02  3.21086482434E-02  3.05721778656E-02
  2.90011372723E-02  2.73997127484E-02  2.57728192663E-02  2.41261481562E-02
  2.24662091865E-02  2.08003642815E-02  1.91368494228E-02  1.74847804609E-02
  1.58541375797E-02  1.42557219815E-02  1.27010769559E-02  1.12023638215E-02
  9.77218124088E-03  8.42331404426E-03  7.16839489196E-03  6.01945878641E-03
  4.98736651375E-03  4.08106845209E-03  3.30667470266E-03  2.66304711993E-03