<UPF version="2.0.1">
  <PP_INFO>
    Generated using FHI98PP, converted with fhi2upf.x v.5.0.2
    Author: unknown
    Generation date: unknown
    Pseudopotential type: SL
    Element:  B
    Functional: SLA-PW

    Suggested minimum cutoff for wavefunctions:   0. Ry
    Suggested minimum cutoff for charge density:   0. Ry
    The Pseudo was generated with a Scalar-Relativistic Calculation
    L component and cutoff radius for Local Potential:  0   0.0000

    Valence configuration: 
    nl pn  l   occ       Rcut    Rcut US       E pseu
    2s  2  0  1.20      0.000      0.000     0.000000
    2p  2  1  1.00      0.000      0.000     0.000000

    Generation configuration: not available.
    Comment:
    OPIUM generated B potential
  </PP_INFO>
  <!--                               -->
  <!-- END OF HUMAN READABLE SECTION -->
  <!--                               -->
  <PP_HEADER generated="Generated using FHI98PP, converted with fhi2upf.x v.5.0.2"
             author="unknown"
             date="unknown"
             comment="OPIUM generated B potential"
             element=" B"
             pseudo_type="SL"
             relativistic="scalar"
             is_ultrasoft="F"
             is_paw="F"
             is_coulomb="F"
             has_so="F"
             has_wfc="F"
             has_gipaw="F"
             paw_as_gipaw="F"
             core_correction="F"
             functional="SLA-PW"
             z_valence="3.000000000000000E+000"
             total_psenergy="0.000000000000000E+000"
             wfc_cutoff="0.000000000000000E+000"
             rho_cutoff="0.000000000000000E+000"
             l_max="1"
             l_max_rho="0"
             l_local="0"
             mesh_size="1118"
             number_of_wfc="2"
             number_of_proj="1"/>
  <PP_MESH dx="1.299999999999981E-002" mesh="1118" xmin="-8.137381763686783E+000" rmax="1.184132143465748E+002"
zmesh="5.000000000000000E+000">
    <PP_R type="real" size="1118" columns="4">
 5.848035476425733E-005  5.924556244950222E-005  6.002078277581124E-005  6.080614675726465E-005 
 6.160178712224455E-005  6.240783833586632E-005  6.322443662270354E-005  6.405171998981029E-005 
 6.488982825004458E-005  6.573890304569721E-005  6.659908787242951E-005  6.747052810352454E-005 
 6.835337101445543E-005  6.924776580777540E-005  7.015386363833327E-005  7.107181763881899E-005 
 7.200178294564349E-005  7.294391672515700E-005  7.389837820021065E-005  7.486532867706542E-005 
 7.584493157265334E-005  7.683735244219531E-005  7.784275900718034E-005  7.886132118371088E-005 
 7.989321111121906E-005  8.093860318155858E-005  8.199767406847750E-005  8.307060275747639E-005 
 8.415757057605738E-005  8.525876122436886E-005  8.637436080625135E-005  8.750455786068945E-005 
 8.864954339367532E-005  8.980951091048922E-005  9.098465644840230E-005  9.217517860980745E-005 
 9.338127859578351E-005  9.460316024009871E-005  9.584103004365918E-005  9.709509720940794E-005 
 9.836557367768082E-005  9.965267416202482E-005  1.009566161854852E-004  1.022776201173674E-004 
 1.036159092104801E-004  1.049717096388653E-004  1.063452505360222E-004  1.077367640336318E-004 
 1.091464853007869E-004  1.105746525837371E-004  1.120215072461522E-004  1.134872938099140E-004 
 1.149722599964404E-004  1.164766567685514E-004  1.180007383728819E-004  1.195447623828506E-004 
 1.211089897421901E-004  1.226936848090471E-004  1.242991154006597E-004  1.259255528386190E-004 
 1.275732719947229E-004  1.292425513374307E-004  1.309336729789244E-004  1.326469227227862E-004 
 1.343825901123007E-004  1.361409684793878E-004  1.379223549941765E-004  1.397270507152279E-004 
 1.415553606404139E-004  1.434075937584637E-004  1.452840631011826E-004  1.471850857963557E-004 
 1.491109831213432E-004  1.510620805573767E-004  1.530387078445667E-004  1.550411990376295E-004 
 1.570698925623426E-004  1.591251312727404E-004  1.612072625090564E-004  1.633166381564253E-004 
 1.654536147043521E-004  1.676185533069595E-004  1.698118198440242E-004  1.720337849828111E-004 
 1.742848242407170E-004  1.765653180487345E-004  1.788756518157447E-004  1.812162159936531E-004 
 1.835874061433766E-004  1.859896230016941E-004  1.884232725489722E-004  1.908887660777767E-004 
 1.933865202623820E-004  1.959169572291903E-004  1.984805046280717E-004  2.010775957046380E-004 
 2.037086693734625E-004  2.063741702922575E-004  2.090745489370223E-004  2.118102616781752E-004 
 2.145817708576806E-004  2.173895448671863E-004  2.202340582271827E-004  2.231157916671979E-004 
 2.260352322070420E-004  2.289928732391148E-004  2.319892146117902E-004  2.350247627138918E-004 
 2.381000305602737E-004  2.412155378785214E-004  2.443718111967868E-004  2.475693839327731E-004 
 2.508087964838832E-004  2.540905963185481E-004  2.574153380687511E-004  2.607835836237611E-004 
 2.641959022250938E-004  2.676528705627142E-004  2.711550728724996E-004  2.747031010349756E-004 
 2.782975546753464E-004  2.819390412648326E-004  2.856281762233347E-004  2.893655830234412E-004 
 2.931518932957968E-004  2.969877469358493E-004  3.008737922119934E-004  3.048106858751302E-004 
 3.087990932696586E-004  3.128396884459215E-004  3.169331542741204E-004  3.210801825597232E-004 
 3.252814741603805E-004  3.295377391043722E-004  3.338496967106044E-004  3.382180757101751E-004 
 3.426436143695327E-004  3.471270606152436E-004  3.516691721603944E-004  3.562707166326471E-004 
 3.609324717039694E-004  3.656552252220640E-004  3.704397753435158E-004  3.752869306686832E-004 
 3.801975103783528E-004  3.851723443721833E-004  3.902122734089600E-004  3.953181492486858E-004 
 4.004908347965301E-004  4.057312042486619E-004  4.110401432399914E-004  4.164185489938436E-004 
 4.218673304735923E-004  4.273874085362759E-004  4.329797160882256E-004  4.386451982427281E-004 
 4.443848124797513E-004  4.501995288077625E-004  4.560903299276606E-004  4.620582113988556E-004 
 4.681041818075204E-004  4.742292629370437E-004  4.804344899407150E-004  4.867209115166668E-004 
 4.930895900851079E-004  4.995416019678741E-004  5.060780375703304E-004  5.127000015656507E-004 
 5.194086130815110E-004  5.262050058892252E-004  5.330903285953532E-004  5.400657448358205E-004 
 5.471324334725737E-004  5.542915887928121E-004  5.615444207108239E-004  5.688921549724658E-004 
 5.763360333623165E-004  5.838773139135409E-004  5.915172711205014E-004  5.992571961541494E-004 
 6.070983970802375E-004  6.150421990803851E-004  6.230899446760375E-004  6.312429939553542E-004 
 6.395027248030688E-004  6.478705331333534E-004  6.563478331257321E-004  6.649360574640807E-004 
 6.736366575787525E-004  6.824511038918757E-004  6.913808860658561E-004  7.004275132551354E-004 
 7.095925143612397E-004  7.188774382911700E-004  7.282838542191693E-004  7.378133518519176E-004 
 7.474675416971965E-004  7.572480553360668E-004  7.671565456986126E-004  7.771946873432882E-004 
 7.873641767399237E-004  7.976667325564309E-004  8.081040959492641E-004  8.186780308576786E-004 
 8.293903243018411E-004  8.402427866848400E-004  8.512372520986474E-004  8.623755786340866E-004 
 8.736596486948522E-004  8.850913693156422E-004  8.966726724844490E-004  9.084055154690736E-004 
 9.202918811479055E-004  9.323337783450349E-004  9.445332421697498E-004  9.568923343604714E-004 
 9.694131436331962E-004  9.820977860344922E-004  9.949484052991159E-004  1.007967173212308E-003 
 1.021156289976833E-003  1.034517984584815E-003  1.048054515194444E-003  1.061768169511613E-003 
 1.075661265176539E-003  1.089736150155459E-003  1.103995203137432E-003  1.118440833936351E-003 
 1.133075483898203E-003  1.147901626313662E-003  1.162921766836085E-003  1.178138443904971E-003 
 1.193554229174959E-003  1.209171727950453E-003  1.224993579625916E-003  1.241022458131938E-003 
 1.257261072387140E-003  1.273712166755977E-003  1.290378521512554E-003  1.307262953310492E-003 
 1.324368315658952E-003  1.341697499404884E-003  1.359253433221584E-003  1.377039084103654E-003 
 1.395057457868423E-003  1.413311599663944E-003  1.431804594483626E-003  1.450539567687610E-003 
 1.469519685530957E-003  1.488748155698758E-003  1.508228227848237E-003  1.527963194157951E-003 
 1.547956389884178E-003  1.568211193924582E-003  1.588731029389253E-003  1.609519364179225E-003 
 1.630579711572554E-003  1.651915630818076E-003  1.673530727736926E-003  1.695428655331929E-003 
 1.717613114404967E-003  1.740087854182425E-003  1.762856672948817E-003  1.785923418688707E-003 
 1.809291989737025E-003  1.832966335437899E-003  1.856950456812100E-003  1.881248407233223E-003 
 1.905864293112722E-003  1.930802274593899E-003  1.956066566254978E-003  1.981661437821381E-003 
 2.007591214887323E-003  2.033860279646842E-003  2.060473071634405E-003  2.087434088475199E-003 
 2.114747886645241E-003  2.142419082241432E-003  2.170452351761685E-003  2.198852432895272E-003 
 2.227624125323500E-003  2.256772291530870E-003  2.286301857626843E-003  2.316217814178376E-003 
 2.346525217053326E-003  2.377229188274916E-003  2.408334916887361E-003  2.439847659832829E-003 
 2.471772742839882E-003  2.504115561323534E-003  2.536881581297087E-003  2.570076340295902E-003 
 2.603705448313258E-003  2.637774588748448E-003  2.672289519367297E-003  2.707256073275227E-003 
 2.742680159903071E-003  2.778567766005782E-003  2.814924956674209E-003  2.851757876360109E-003 
 2.889072749914571E-003  2.926875883640042E-003  2.965173666356096E-003  3.003972570479164E-003 
 3.043279153116391E-003  3.083100057173790E-003  3.123442012478929E-003  3.164311836918271E-003 
 3.205716437589420E-003  3.247662811968437E-003  3.290158049092432E-003  3.333209330757615E-003 
 3.376823932733056E-003  3.421009225990296E-003  3.465772677949063E-003  3.511121853739276E-003 
 3.557064417479582E-003  3.603608133572599E-003  3.650760868017125E-003  3.698530589737514E-003 
 3.746925371930426E-003  3.795953393429239E-003  3.845622940086277E-003  3.895942406173145E-003 
 3.946920295799376E-003  3.998565224349649E-003  4.050885919939810E-003  4.103891224891939E-003 
 4.157590097228739E-003  4.211991612187433E-003  4.267104963753533E-003  4.322939466214632E-003 
 4.379504555734534E-003  4.436809791947999E-003  4.494864859576341E-003  4.553679570064164E-003 
 4.613263863237527E-003  4.673627808983794E-003  4.734781608953461E-003  4.796735598284281E-003 
 4.859500247347905E-003  4.923086163519412E-003  4.987504092969974E-003  5.052764922482991E-003 
 5.118879681293978E-003  5.185859542954530E-003  5.253715827220696E-003  5.322460001966007E-003 
 5.392103685119622E-003  5.462658646629750E-003  5.534136810452814E-003  5.606550256568626E-003 
 5.679911223021930E-003  5.754232107990662E-003  5.829525471881275E-003  5.905804039451475E-003 
 5.983080701960721E-003  6.061368519348911E-003  6.140680722443514E-003  6.221030715195624E-003 
 6.302432076945257E-003  6.384898564716291E-003  6.468444115541439E-003  6.553082848817636E-003 
 6.638829068692260E-003  6.725697266480543E-003  6.813702123114672E-003  6.902858511624877E-003 
 6.993181499653017E-003  7.084686351999047E-003  7.177388533200805E-003  7.271303710147551E-003 
 7.366447754727719E-003  7.462836746511302E-003  7.560486975467310E-003  7.659414944716864E-003 
 7.759637373322224E-003  7.861171199112362E-003  7.964033581545498E-003  8.068241904609088E-003 
 8.173813779757752E-003  8.280767048889659E-003  8.389119787361865E-003  8.498890307045046E-003 
 8.610097159418297E-003  8.722759138704354E-003  8.836895285045863E-003  8.952524887723209E-003 
 9.069667488414458E-003  9.188342884497932E-003  9.308571132398033E-003  9.430372550974819E-003 
 9.553767724957907E-003  9.678777508425405E-003  9.805423028328255E-003  9.933725688060750E-003 
 1.006370717107775E-002  1.019538944455926E-002  1.032879476312292E-002  1.046394567258507E-002 
 1.060086501377111E-002  1.073957592637554E-002  1.088010185287277E-002  1.102246654247882E-002 
 1.116669405516508E-002  1.131280876572449E-002  1.146083536789088E-002  1.161079887851234E-002 
 1.176272464177909E-002  1.191663833350674E-002  1.207256596547549E-002  1.223053388982628E-002 
 1.239056880351431E-002  1.255269775282088E-002  1.271694813792432E-002  1.288334771753063E-002 
 1.305192461356481E-002  1.322270731592354E-002  1.339572468728999E-002  1.357100596801170E-002 
 1.374858078104231E-002  1.392847913694786E-002  1.411073143897870E-002  1.429536848820762E-002 
 1.448242148873541E-002  1.467192205296436E-002  1.486390220694086E-002  1.505839439576786E-002 
 1.525543148908818E-002  1.545504678663955E-002  1.565727402388237E-002  1.586214737770106E-002 
 1.606970147218002E-002  1.627997138445523E-002  1.649299265064231E-002  1.670880127184227E-002 
 1.692743372022575E-002  1.714892694519686E-002  1.737331837963782E-002  1.760064594623511E-002 
 1.783094806388856E-002  1.806426365420418E-002  1.830063214807207E-002  1.854009349233025E-002 
 1.878268815651584E-002  1.902845713970453E-002  1.927744197743938E-002  1.952968474875058E-002 
 1.978522808326687E-002  2.004411516841999E-002  2.030638975674350E-002  2.057209617326708E-002 
 2.084127932300751E-002  2.111398469855779E-002  2.139025838777548E-002  2.167014708157157E-002 
 2.195369808180148E-002  2.224095930925915E-002  2.253197931177571E-002  2.282680727242426E-002 
 2.312549301783186E-002  2.342808702660038E-002  2.373464043783751E-002  2.404520505979939E-002 
 2.435983337864628E-002  2.467857856731292E-002  2.500149449449483E-002  2.532863573375229E-002 
 2.566005757273336E-002  2.599581602251764E-002  2.633596782708228E-002  2.668057047289185E-002 
 2.702968219861370E-002  2.738336200496036E-002  2.774166966466090E-002  2.810466573256263E-002 
 2.847241155586498E-002  2.884496928448737E-002  2.922240188157265E-002  2.960477313412806E-002 
 2.999214766380537E-002  3.038459093782209E-002  3.078216928002555E-002  3.118494988210188E-002 
 3.159300081493147E-002  3.200639104009319E-002  3.242519042151899E-002  3.284946973730112E-002 
 3.327930069165377E-002  3.371475592703126E-002  3.415590903640483E-002  3.460283457569989E-002 
 3.505560807639634E-002  3.551430605829343E-002  3.597900604244186E-002  3.644978656424498E-002 
 3.692672718673148E-002  3.740990851400171E-002  3.789941220485002E-002  3.839532098656525E-002 
 3.889771866891174E-002  3.940669015829362E-002  3.992232147210399E-002  4.044469975326213E-002 
 4.097391328494086E-002  4.151005150548664E-002  4.205320502353477E-002  4.260346563332258E-002 
 4.316092633020283E-002  4.372568132636002E-002  4.429782606673272E-002  4.487745724514381E-002 
 4.546467282064202E-002  4.605957203405724E-002  4.666225542477245E-002  4.727282484771513E-002 
 4.789138349057096E-002  4.851803589122287E-002  4.915288795541798E-002  4.979604697466618E-002 
 5.044762164437251E-002  5.110772208220696E-002  5.177645984671462E-002  5.245394795616936E-002 
 5.314030090767417E-002  5.383563469651142E-002  5.454006683574646E-002  5.525371637608732E-002 
 5.597670392600494E-002  5.670915167211601E-002  5.745118339983293E-002  5.820292451428381E-002 
 5.896450206150620E-002  5.973604474991820E-002  6.051768297207050E-002  6.130954882668306E-002 
 6.211177614096994E-002  6.292450049325669E-002  6.374785923589320E-002  6.458199151846665E-002 
 6.542703831131809E-002  6.628314242936684E-002  6.715044855624643E-002  6.802910326875659E-002 
 6.891925506163508E-002  6.982105437265344E-002  7.073465360804161E-002  7.166020716824488E-002 
 7.259787147401781E-002  7.354780499285979E-002  7.451016826579647E-002  7.548512393451147E-002 
 7.647283676883330E-002  7.747347369458188E-002  7.848720382177915E-002  7.951419847322942E-002 
 8.055463121347314E-002  8.160867787811979E-002  8.267651660356436E-002  8.375832785709306E-002 
 8.485429446738252E-002  8.596460165539840E-002  8.708943706569819E-002  8.822899079814328E-002 
 8.938345544002681E-002  9.055302609862097E-002  9.173790043415075E-002  9.293827869319898E-002 
 9.415436374254844E-002  9.538636110346690E-002  9.663447898644062E-002  9.789892832636256E-002 
 9.917992281818044E-002  1.004776789530124E-001  1.017924160547341E-001  1.031243563170448E-001 
 1.044737248410190E-001  1.058407496731489E-001  1.072256618438848E-001  1.086286954066798E-001 
 1.100500874775454E-001  1.114900782751245E-001  1.129489111612892E-001  1.144268326822695E-001 
 1.159240926103201E-001  1.174409439859324E-001  1.189776431605990E-001  1.205344498401382E-001 
 1.221116271285839E-001  1.237094415726520E-001  1.253281632067862E-001  1.269680655987955E-001 
 1.286294258960873E-001  1.303125248725060E-001  1.320176469757846E-001  1.337450803756168E-001 
 1.354951170123588E-001  1.372680526463673E-001  1.390641869079844E-001  1.408838233481751E-001 
 1.427272694898287E-001  1.445948368797308E-001  1.464868411412154E-001  1.484036020275056E-001 
 1.503454434757534E-001  1.523126936617853E-001  1.543056850555650E-001  1.563247544773816E-001 
 1.583702431547729E-001  1.604424967801938E-001  1.625418655694392E-001  1.646687043208312E-001 
 1.668233724751809E-001  1.690062341765347E-001  1.712176583337155E-001  1.734580186826693E-001 
 1.757276938496273E-001  1.780270674150948E-001  1.803565279786771E-001  1.827164692247538E-001 
 1.851072899890126E-001  1.875293943258526E-001  1.899831915766717E-001  1.924690964390456E-001 
 1.949875290368129E-001  1.975389149910765E-001  2.001236854921353E-001  2.027422773723560E-001 
 2.053951331799989E-001  2.080827012540095E-001  2.108054357997890E-001  2.135637969659560E-001 
 2.163582509221127E-001  2.191892699376289E-001  2.220573324614561E-001  2.249629232029873E-001 
 2.279065332139733E-001  2.308886599715120E-001  2.339098074621238E-001  2.369704862669241E-001 
 2.400712136479163E-001  2.432125136354076E-001  2.463949171165727E-001  2.496189619251742E-001 
 2.528851929324583E-001  2.561941621392392E-001  2.595464287691886E-001  2.629425593633456E-001 
 2.663831278758637E-001  2.698687157710104E-001  2.733999121214361E-001  2.769773137077285E-001 
 2.806015251192704E-001  2.842731588564162E-001  2.879928354340063E-001  2.917611834862356E-001 
 2.955788398728944E-001  2.994464497869975E-001  3.033646668638261E-001  3.073341532913919E-001 
 3.113555799223490E-001  3.154296263873693E-001  3.195569812100022E-001  3.237383419230361E-001 
 3.279744151863835E-001  3.322659169065083E-001  3.366135723574153E-001  3.410181163032235E-001 
 3.454802931223432E-001  3.500008569332770E-001  3.545805717220684E-001  3.592202114714170E-001 
 3.639205602914830E-001  3.686824125524045E-001  3.735065730185477E-001  3.783938569845122E-001 
 3.833450904129212E-001  3.883611100740083E-001  3.934427636870348E-001  3.985909100635564E-001 
 4.038064192525637E-001  4.090901726875228E-001  4.144430633353405E-001  4.198659958472764E-001 
 4.253598867118321E-001  4.309256644096398E-001  4.365642695703776E-001  4.422766551317379E-001 
 4.480637865004767E-001  4.539266417155692E-001  4.598662116135010E-001  4.658834999957215E-001 
 4.719795237982900E-001  4.781553132637364E-001  4.844119121151804E-001  4.907503777327191E-001 
 4.971717813321279E-001  5.036772081458988E-001  5.102677576066468E-001  5.169445435329170E-001 
 5.237086943174222E-001  5.305613531177444E-001  5.375036780495309E-001  5.445368423822186E-001 
 5.516620347373192E-001  5.588804592892994E-001  5.661933359690891E-001  5.736019006702523E-001 
 5.811074054578570E-001  5.887111187800759E-001  5.964143256825589E-001  6.042183280256052E-001 
 6.121244447041858E-001  6.201340118708368E-001  6.282483831614731E-001  6.364689299241554E-001 
 6.447970414508526E-001  6.532341252122343E-001  6.617816070955372E-001  6.704409316455436E-001 
 6.792135623087124E-001  6.881009816805054E-001  6.971046917559491E-001  7.062262141834764E-001 
 7.154670905220872E-001  7.248288825018773E-001  7.343131722879729E-001  7.439215627479216E-001 
 7.536556777225814E-001  7.635171623005483E-001  7.735076830961888E-001  7.836289285312957E-001 
 7.938826091204370E-001  8.042704577600370E-001  8.147942300212401E-001  8.254557044466058E-001 
 8.362566828506873E-001  8.471989906245425E-001  8.582844770442287E-001  8.695150155833355E-001 
 8.808925042296059E-001  8.924188658057002E-001  9.040960482941591E-001  9.159260251666156E-001 
 9.279107957173179E-001  9.400523854010140E-001  9.523528461752601E-001  9.648142568471999E-001 
 9.774387234248983E-001  9.902283794732543E-001  1.003185386474580E+000  1.016311934193899E+000 
 1.029610241049017E+000  1.043082554485445E+000  1.056731151356217E+000  1.070558338306692E+000 
 1.084566452164373E+000  1.098757860333842E+000  1.113134961196858E+000  1.127700184517685E+000 
 1.142455991853731E+000  1.157404876971556E+000  1.172549366268325E+000  1.187892019198775E+000 
 1.203435428707768E+000  1.219182221668504E+000  1.235135059326474E+000  1.251296637749211E+000 
 1.267669688281934E+000  1.284256978009154E+000  1.301061310222313E+000  1.318085524893551E+000 
 1.335332499155668E+000  1.352805147788362E+000  1.370506423710840E+000  1.388439318480862E+000 
 1.406606862800328E+000  1.425012127027467E+000  1.443658221695741E+000  1.462548298039528E+000 
 1.481685548526690E+000  1.501073207398107E+000  1.520714551214277E+000  1.540612899409048E+000 
 1.560771614850626E+000  1.581194104409901E+000  1.601883819536217E+000  1.622844256840673E+000 
 1.644078958687061E+000  1.665591513790534E+000  1.687385557824107E+000  1.709464774033093E+000 
 1.731832893857582E+000  1.754493697563062E+000  1.777451014879296E+000  1.800708725647550E+000 
 1.824270760476298E+000  1.848141101405509E+000  1.872323782579611E+000  1.896822890929281E+000 
 1.921642566862144E+000  1.946787004962498E+000  1.972260454700233E+000  1.998067221148982E+000 
 2.024211665713698E+000  2.050698206867740E+000  2.077531320899603E+000  2.104715542669423E+000 
 2.132255466375381E+000  2.160155746330131E+000  2.188421097747390E+000  2.217056297538822E+000 
 2.246066185121347E+000  2.275455663235012E+000  2.305229698771569E+000  2.335393323613887E+000 
 2.365951635486359E+000  2.396909798816421E+000  2.428273045607365E+000  2.460046676322537E+000 
 2.492236060781156E+000  2.524846639065811E+000  2.557883922441846E+000  2.591353494288786E+000 
 2.625261011043933E+000  2.659612203158320E+000  2.694412876065177E+000  2.729668911161051E+000 
 2.765386266799788E+000  2.801570979299500E+000  2.838229163962725E+000  2.875367016109919E+000 
 2.912990812126488E+000  2.951106910523505E+000  2.989721753012321E+000  3.028841865593223E+000 
 3.068473859658352E+000  3.108624433109023E+000  3.149300371487716E+000  3.190508549124830E+000 
 3.232255930300466E+000  3.274549570421404E+000  3.317396617213487E+000  3.360804311929605E+000 
 3.404779990573479E+000  3.449331085139464E+000  3.494465124868581E+000  3.540189737520964E+000 
 3.586512650664984E+000  3.633441692983212E+000  3.680984795595498E+000  3.729149993399338E+000 
 3.777945426427801E+000  3.827379341225206E+000  3.877460092240819E+000  3.928196143240743E+000 
 3.979596068738361E+000  4.031668555443420E+000  4.084422403730110E+000  4.137866529124351E+000 
 4.192009963810538E+000  4.246861858157996E+000  4.302431482267425E+000  4.358728227537561E+000 
 4.415761608252346E+000  4.473541263188865E+000  4.532076957246325E+000  4.591378583096339E+000 
 4.651456162854823E+000  4.712319849775745E+000  4.773979929967055E+000  4.836446824129065E+000 
 4.899731089315572E+000  4.963843420717999E+000  5.028794653472955E+000  5.094595764493365E+000 
 5.161257874323607E+000  5.228792249018901E+000  5.297210302049312E+000  5.366523596228641E+000 
 5.436743845668578E+000  5.507882917758409E+000  5.579952835170636E+000  5.652965777892835E+000 
 5.726934085286102E+000  5.801870258170440E+000  5.877786960937422E+000  5.954697023690502E+000 
 6.032613444413343E+000  6.111549391166491E+000  6.191518204312838E+000  6.272533398772115E+000 
 6.354608666305021E+000  6.437757877827115E+000  6.521995085753049E+000  6.607334526371453E+000 
 6.693790622250910E+000  6.781377984677398E+000  6.870111416123630E+000  6.960005912750718E+000 
 7.051076666942548E+000  7.143339069873336E+000  7.236808714108771E+000  7.331501396241195E+000 
 7.427433119559265E+000  7.524620096752551E+000  7.623078752651511E+000  7.722825727003336E+000 
 7.823877877284108E+000  7.926252281547717E+000  8.029966241312152E+000  8.135037284483465E+000 
 8.241483168318034E+000  8.349321882423574E+000  8.458571651799437E+000  8.569250939916675E+000 
 8.681378451838402E+000  8.794973137381012E+000  8.910054194316727E+000  9.026641071618071E+000 
 9.144753472744799E+000  9.264411358973819E+000  9.385634952772699E+000  9.508444741217316E+000 
 9.632861479454220E+000  9.758906194208292E+000  9.886600187336345E+000  1.001596503942710E+001 
 1.014702261344849E+001  1.027979505844245E+001  1.041430481326819E+001  1.055057461039442E+001 
 1.068862747974121E+001  1.082848675257203E+001  1.097017606543688E+001  1.111371936416688E+001 
 1.125914090792114E+001  1.140646527328669E+001  1.155571735843191E+001  1.170692238731444E+001 
 1.186010591394403E+001  1.201529382670127E+001  1.217251235271279E+001  1.233178806228367E+001 
 1.249314787338795E+001  1.265661905621772E+001  1.282222923779196E+001  1.299000640662553E+001 
 1.315997891745929E+001  1.333217549605213E+001  1.350662524403567E+001  1.368335764383253E+001 
 1.386240256363891E+001  1.404379026247240E+001  1.422755139528583E+001  1.441371701814801E+001 
 1.460231859349230E+001  1.479338799543382E+001  1.498695751515626E+001  1.518305986636918E+001 
 1.538172819083666E+001  1.558299606397839E+001  1.578689750054400E+001  1.599346696036152E+001 
 1.620273935416134E+001  1.641475004947610E+001  1.662953487661791E+001  1.684713013473377E+001 
 1.706757259794021E+001  1.729089952153817E+001  1.751714864830928E+001  1.774635821489447E+001 
 1.797856695825602E+001  1.821381412222425E+001  1.845213946412977E+001  1.869358326152260E+001 
 1.893818631897917E+001  1.918598997499837E+001  1.943703610898785E+001  1.969136714834177E+001 
 1.994902607561116E+001  2.021005643576790E+001  2.047450234356419E+001  2.074240849098782E+001 
 2.101382015481537E+001  2.128878320426401E+001  2.156734410874354E+001  2.184954994570981E+001 
 2.213544840862095E+001  2.242508781499765E+001  2.271851711458896E+001  2.301578589764491E+001 
 2.331694440329736E+001  2.362204352805055E+001  2.393113483438272E+001  2.424427055946033E+001 
 2.456150362396619E+001  2.488288764104325E+001  2.520847692535538E+001  2.553832650226646E+001 
 2.587249211714012E+001  2.621103024476060E+001  2.655399809887724E+001  2.690145364187367E+001 
 2.725345559456364E+001  2.761006344611495E+001  2.797133746410328E+001  2.833733870469753E+001 
 2.870812902297848E+001  2.908377108339243E+001  2.946432837034168E+001  2.984986519891346E+001 
 3.024044672574942E+001  3.063613896005722E+001  3.103700877476625E+001  3.144312391782929E+001 
 3.185455302367219E+001  3.227136562479294E+001  3.269363216351326E+001  3.312142400388322E+001 
 3.355481344374203E+001  3.399387372693653E+001  3.443867905569959E+001  3.488930460319045E+001 
 3.534582652619918E+001  3.580832197801731E+001  3.627686912147700E+001  3.675154714216068E+001 
 3.723243626178363E+001  3.771961775175161E+001  3.821317394689598E+001  3.871318825938842E+001 
 3.921974519283783E+001  3.973293035657170E+001  4.025283048010397E+001  4.077953342779301E+001 
 4.131312821369058E+001  4.185370501658551E+001  4.240135519524411E+001  4.295617130385003E+001 
 4.351824710764614E+001  4.408767759878108E+001  4.466455901236316E+001  4.524898884272429E+001 
 4.584106585989682E+001  4.644089012630585E+001  4.704856301368002E+001  4.766418722018365E+001 
 4.828786678777285E+001  4.891970711977899E+001  4.955981499872200E+001  5.020829860435705E+001 
 5.086526753195674E+001  5.153083281083360E+001  5.220510692310386E+001  5.288820382269731E+001 
 5.358023895461586E+001  5.428132927444388E+001  5.499159326811410E+001  5.571115097193194E+001 
 5.644012399286197E+001  5.717863552907974E+001  5.792681039079262E+001  5.868477502133295E+001 
 5.945265751852732E+001  6.023058765634541E+001  6.101869690683204E+001  6.181711846232633E+001 
 6.262598725797147E+001  6.344543999451923E+001  6.427561516143224E+001  6.511665306028972E+001 
 6.596869582849831E+001  6.683188746331381E+001  6.770637384617694E+001  6.859230276736781E+001 
 6.948982395098270E+001  7.039908908023777E+001  7.132025182310407E+001  7.225346785827757E+001 
 7.319889490148935E+001  7.415669273215995E+001  7.512702322040238E+001  7.611005035437864E+001 
 7.710594026801407E+001  7.811486126907441E+001  7.913698386761013E+001  8.017248080477330E+001 
 8.122152708201060E+001  8.228429999063984E+001  8.336097914181211E+001  8.445174649686652E+001 
 8.555678639808224E+001  8.667628559983265E+001  8.781043330014739E+001  8.895942117268720E+001 
 9.012344339913719E+001  9.130269670202416E+001  9.249738037796301E+001  9.370769633133848E+001 
 9.493384910842731E+001  9.617604593196721E+001  9.743449673617789E+001  9.870941420224054E+001 
 1.000010137942413E+002  1.013095137955856E+002  1.026351353458875E+002  1.039781024783445E+002 
 1.053386421575983E+002  1.067169843180929E+002  1.081133619029339E+002  1.095280109032569E+002 
 1.109611703981097E+002  1.124130825948581E+002  1.138839928701191E+002  1.153741498112301E+002 
 1.168838052582608E+002  1.184132143465748E+002
    </PP_R>
    <PP_RAB type="real" size="1118" columns="4">
 7.602446119353339E-007  7.701923118435173E-007  7.802701760855344E-007  7.904799078444286E-007 
 8.008232325891671E-007  8.113018983662499E-007  8.219176760951337E-007  8.326723598675212E-007 
 8.435677672505669E-007  8.546057395940509E-007  8.657881423415707E-007  8.771168653458059E-007 
 8.885938231879073E-007  9.002209555010666E-007  9.120002272983189E-007  9.239336293046330E-007 
 9.360231782933514E-007  9.482709174270268E-007  9.606789166027240E-007  9.732492728018358E-007 
 9.859841104444788E-007  9.988855817485241E-007  1.011955867093329E-006  1.025197175388226E-006 
 1.038611744445832E-006  1.052201841360246E-006  1.065969762890192E-006  1.079917835847177E-006 
 1.094048417488730E-006  1.108363895916779E-006  1.122866690481251E-006  1.137559252188946E-006 