<PP_INFO>
Generated using Fritz-Haber code                                                
Author: unknown    Generation date: as well                                     
hydrogen, fhi98PP : Trouiller-Martins-type, LDA Ceperley/Alder Perdew/Wang (1992
    1        The Pseudo was generated with a Scalar-Relativistic Calculation
nl pn  l   occ               Rcut            Rcut US             E pseu
1s  0  0  1.00      0.00000000000      0.00000000000      0.00000000000
2s  0  1  0.00      0.00000000000      0.00000000000      0.00000000000
2p  0  2  0.00      0.00000000000      0.00000000000      0.00000000000
3d  0  3  0.00      0.00000000000      0.00000000000      0.00000000000
</PP_INFO>


<PP_HEADER>
   0                   Version Number
   H                   Element
   NC                  Norm - Conserving pseudopotential
    F                  Nonlinear Core Correction
SLA  PW   NOGX NOGC    PW   Exchange-Correlation functional
    1.00000000000      Z valence
    0.00000000000      Total energy
    0.00000    0.00000 Suggested cutoff for wfc and rho
    3                  Max angular momentum component
  387                  Number of points in mesh
    4    3             Number of Wavefunctions, Number of Projectors
 Wavefunctions         nl  l   occ
                       1s  0  1.00
                       2s  1  0.00
                       2p  2  0.00
                       3d  3  0.00
</PP_HEADER>


<PP_MESH>
  <PP_R>
  6.25000000000E-03  6.40437500000E-03  6.56256306250E-03  6.72465837014E-03
  6.89075743189E-03  7.06095914045E-03  7.23536483122E-03  7.41407834255E-03
  7.59720607762E-03  7.78485706773E-03  7.97714303731E-03  8.17417847033E-03
  8.37608067854E-03  8.58296987130E-03  8.79496922713E-03  9.01220496704E-03
  9.23480642972E-03  9.46290614854E-03  9.69663993040E-03  9.93614693668E-03
  1.01815697660E-02  1.04330545392E-02  1.06907509864E-02  1.09548125357E-02
  1.12253964054E-02  1.15026636966E-02  1.17867794899E-02  1.20779129433E-02
  1.23762373930E-02  1.26819304566E-02  1.29951741389E-02  1.33161549401E-02
  1.36450639671E-02  1.39820970471E-02  1.43274548442E-02  1.46813429788E-02
  1.50439721504E-02  1.54155582625E-02  1.57963225516E-02  1.61864917186E-02
  1.65862980641E-02  1.69959796262E-02  1.74157803230E-02  1.78459500970E-02
  1.82867450644E-02  1.87384276675E-02  1.92012668309E-02  1.96755381216E-02
  2.01615239132E-02  2.06595135538E-02  2.11698035386E-02  2.16926976860E-02
  2.22285073189E-02  2.27775514496E-02  2.33401569704E-02  2.39166588476E-02
  2.45074003212E-02  2.51127331091E-02  2.57330176169E-02  2.63686231520E-02
  2.70199281439E-02  2.76873203690E-02  2.83711971821E-02  2.90719657525E-02
  2.97900433066E-02  3.05258573763E-02  3.12798460535E-02  3.20524582510E-02
  3.28441539698E-02  3.36554045729E-02  3.44866930658E-02  3.53385143845E-02
  3.62113756898E-02  3.71057966694E-02  3.80223098471E-02  3.89614609003E-02
  3.99238089846E-02  4.09099270665E-02  4.19204022650E-02  4.29558362010E-02
  4.40168453552E-02  4.51040614354E-02  4.62181317529E-02  4.73597196072E-02
  4.85295046815E-02  4.97281834471E-02  5.09564695783E-02  5.22150943768E-02
  5.35048072079E-02  5.48263759460E-02  5.61805874318E-02  5.75682479414E-02
  5.89901836656E-02  6.04472412021E-02  6.19402880598E-02  6.34702131749E-02
  6.50379274403E-02  6.66443642481E-02  6.82904800450E-02  6.99772549021E-02
  7.17056930982E-02  7.34768237177E-02  7.52917012635E-02  7.71514062848E-02
  7.90570460200E-02  8.10097550567E-02  8.30106960066E-02  8.50610601979E-02
  8.71620683848E-02  8.93149714739E-02  9.15210512693E-02  9.37816212357E-02
  9.60980272802E-02  9.84716485540E-02  1.00903898273E-01  1.03396224561E-01
  1.05950111307E-01  1.08567079057E-01  1.11248685909E-01  1.13996528451E-01
  1.16812242704E-01  1.19697505099E-01  1.22654033475E-01  1.25683588102E-01
  1.28787972728E-01  1.31969035654E-01  1.35228670835E-01  1.38568819004E-01
  1.41991468834E-01  1.45498658114E-01  1.49092474969E-01  1.52775059101E-01
  1.56548603061E-01  1.60415353556E-01  1.64377612789E-01  1.68437739825E-01
  1.72598151999E-01  1.76861326353E-01  1.81229801114E-01  1.85706177202E-01
  1.90293119779E-01  1.94993359837E-01  1.99809695825E-01  2.04744995312E-01
  2.09802196696E-01  2.14984310955E-01  2.20294423435E-01  2.25735695694E-01
  2.31311367378E-01  2.37024758152E-01  2.42879269678E-01  2.48878387639E-01
  2.55025683814E-01  2.61324818204E-01  2.67779541214E-01  2.74393695882E-01
  2.81171220170E-01  2.88116149308E-01  2.95232618196E-01  3.02524863866E-01
  3.09997228003E-01  3.17654159535E-01  3.25500217275E-01  3.33540072642E-01
  3.41778512436E-01  3.50220441693E-01  3.58870886603E-01  3.67734997502E-01
  3.76818051941E-01  3.86125457824E-01  3.95662756632E-01  4.05435626721E-01
  4.15449886701E-01  4.25711498902E-01  4.36226572925E-01  4.47001369276E-01
  4.58042303097E-01  4.69355947984E-01  4.80949039899E-01  4.92828481185E-01
  5.05001344670E-01  5.17474877883E-01  5.30256507367E-01  5.43353843099E-01
  5.56774683024E-01  5.70527017694E-01  5.84619035031E-01  5.99059125197E-01
  6.13855885589E-01  6.29018125963E-01  6.44554873674E-01  6.60475379054E-01
  6.76789120917E-01  6.93505812203E-01  7.10635405765E-01  7.28188100287E-01
  7.46174346364E-01  7.64604852719E-01  7.83490592582E-01  8.02842810218E-01
  8.22673027631E-01  8.42993051413E-01  8.63814979783E-01  8.85151209784E-01
  9.07014444665E-01  9.29417701449E-01  9.52374318674E-01  9.75897964346E-01
  1.00000264407E+00  1.02470270937E+00  1.05001286629E+00  1.07594818409E+00
  1.10252410424E+00  1.12975644961E+00  1.15766143392E+00  1.18625567134E+00
  1.21555618642E+00  1.24558042422E+00  1.27634626070E+00  1.30787201334E+00
  1.34017645207E+00  1.37327881044E+00  1.40719879706E+00  1.44195660734E+00
  1.47757293554E+00  1.51406898705E+00  1.55146649103E+00  1.58978771336E+00
  1.62905546988E+00  1.66929313999E+00  1.71052468054E+00  1.75277464015E+00
  1.79606817377E+00  1.84043105766E+00  1.88588970478E+00  1.93247118049E+00
  1.98020321865E+00  2.02911423815E+00  2.07923335983E+00  2.13059042382E+00
  2.18321600729E+00  2.23714144267E+00  2.29239883630E+00  2.34902108756E+00
  2.40704190842E+00  2.46649584356E+00  2.52741829089E+00  2.58984552268E+00
  2.65381470709E+00  2.71936393035E+00  2.78653221943E+00  2.85535956525E+00
  2.92588694652E+00  2.99815635409E+00  3.07221081604E+00  3.14809442320E+00
  3.22585235545E+00  3.30553090863E+00  3.38717752207E+00  3.47084080687E+00
  3.55657057480E+00  3.64441786800E+00  3.73443498933E+00  3.82667553357E+00
  3.92119441925E+00  4.01804792141E+00  4.11729370506E+00  4.21899085958E+00
  4.32319993381E+00  4.42998297218E+00  4.53940355159E+00  4.65152681931E+00
  4.76641953175E+00  4.88415009418E+00  5.00478860151E+00  5.12840687997E+00
  5.25507852990E+00  5.38487896959E+00  5.51788548014E+00  5.65417725150E+00
  5.79383542961E+00  5.93694316472E+00  6.08358566089E+00  6.23385022672E+00
  6.38782632732E+00  6.54560563760E+00  6.70728209685E+00  6.87295196464E+00
  7.04271387817E+00  7.21666891096E+00  7.39492063306E+00  7.57757517270E+00
  7.76474127946E+00  7.95653038907E+00  8.15305668968E+00  8.35443718991E+00
  8.56079178850E+00  8.77224334568E+00  8.98891775632E+00  9.21094402490E+00
  9.43845434231E+00  9.67158416457E+00  9.91047229343E+00  1.01552609591E+01
  1.04060959048E+01  1.06631264736E+01  1.09265056975E+01  1.11963903882E+01
  1.14729412308E+01  1.17563228792E+01  1.20467040544E+01  1.23442576445E+01
  1.26491608083E+01  1.29615950803E+01  1.32817464788E+01  1.36098056168E+01
  1.39459678155E+01  1.42904332206E+01  1.46434069211E+01  1.50050990721E+01
  1.53757250191E+01  1.57555054271E+01  1.61446664112E+01  1.65434396715E+01
  1.69520626314E+01  1.73707785784E+01  1.77998368093E+01  1.82394927785E+01
  1.86900082501E+01  1.91516514539E+01  1.96246972448E+01  2.01094272667E+01
  2.06061301202E+01  2.11151015342E+01  2.16366445421E+01  2.21710696623E+01
  2.27186950829E+01  2.32798468515E+01  2.38548590687E+01  2.44440740877E+01
  2.50478427177E+01  2.56665244328E+01  2.63004875863E+01  2.69501096297E+01
  2.76157773375E+01  2.82978870378E+01  2.89968448476E+01  2.97130669153E+01
  3.04469796682E+01  3.11990200660E+01  3.19696358616E+01  3.27592858674E+01
  3.35684402283E+01  3.43975807019E+01  3.52472009453E+01  3.61178068086E+01
  3.70099166368E+01  3.79240615777E+01  3.88607858987E+01  3.98206473104E+01
  4.08042172990E+01  4.18120814662E+01  4.28448398785E+01  4.39031074235E+01
  4.49875141768E+01  4.60987057770E+01  4.72373438097E+01  4.84041062018E+01
  4.95996876250E+01  5.08247999093E+01  5.20801724671E+01  5.33665527270E+01
  5.46847065793E+01  5.60354188319E+01  5.74194936770E+01  5.88377551708E+01
  6.02910477235E+01  6.17802366023E+01  6.33062084464E+01  6.48698717950E+01
  6.64721576284E+01  6.81140199218E+01  6.97964362138E+01  7.15204081883E+01
  7.32869622706E+01  7.50971502387E+01  7.69520498496E+01
  </PP_R>
  <PP_RAB>
  1.52499292647E-04  1.56266025175E-04  1.60125795997E-04  1.64080903158E-04
  1.68133701466E-04  1.72286603893E-04  1.76542083009E-04  1.80902672459E-04
  1.85370968469E-04  1.89949631390E-04  1.94641387285E-04  1.99449029551E-04
  2.04375420581E-04  2.09423493470E-04  2.14596253758E-04  2.19896781226E-04
  2.25328231722E-04  2.30893839046E-04  2.36596916870E-04  2.42440860717E-04
  2.48429149977E-04  2.54565349981E-04  2.60853114126E-04  2.67296186045E-04
  2.73898401840E-04  2.80663692365E-04  2.87596085567E-04  2.94699708880E-04
  3.01978791690E-04  3.09437667844E-04  3.17080778240E-04  3.24912673463E-04
  3.32938016497E-04  3.41161585505E-04  3.49588276667E-04  3.58223107100E-04
  3.67071217846E-04  3.76137876927E-04  3.85428482487E-04  3.94948566004E-04
  4.04703795584E-04  4.14699979335E-04  4.24943068825E-04  4.35439162625E-04
  4.46194509942E-04  4.57215514337E-04  4.68508737541E-04  4.80080903359E-04
  4.91938901672E-04  5.04089792543E-04  5.16540810419E-04  5.29299368436E-04
  5.42373062836E-04  5.55769677489E-04  5.69497188522E-04  5.83563769079E-04
  5.97977794175E-04  6.12747845691E-04  6.27882717480E-04  6.43391420602E-04
  6.59283188691E-04  6.75567483451E-04  6.92254000292E-04  7.09352674100E-04
  7.26873685150E-04  7.44827465173E-04  7.63224703563E-04  7.82076353741E-04
  8.01393639678E-04  8.21188062578E-04  8.41471407724E-04  8.62255751495E-04
  8.83553468557E-04  9.05377239230E-04  9.27740057039E-04  9.50655236448E-04
  9.74136420788E-04  9.98197590382E-04  1.02285307086E-03  1.04811754171E-03
  1.07400604499E-03  1.10053399431E-03  1.12771718397E-03  1.15557179841E-03
  1.18411442183E-03  1.21336204805E-03  1.24333209064E-03  1.27404239328E-03
  1.30551124039E-03  1.33775736803E-03  1.37079997502E-03  1.40465873440E-03
  1.43935380514E-03  1.47490584413E-03  1.51133601848E-03  1.54866601813E-03
  1.58691806878E-03  1.62611494508E-03  1.66627998422E-03  1.70743709983E-03
  1.74961079620E-03  1.79282618287E-03  1.83710898958E-03  1.88248558162E-03
  1.92898297549E-03  1.97662885499E-03  2.02545158770E-03  2.07548024192E-03
  2.12674460390E-03  2.17927519561E-03  2.23310329294E-03  2.28826094428E-03
  2.34478098960E-03  2.40269708005E-03  2.46204369792E-03  2.52285617726E-03
  2.58517072484E-03  2.64902444174E-03  2.71445534545E-03  2.78150239249E-03
  2.85020550158E-03  2.92060557747E-03  2.99274453523E-03  3.06666532525E-03
  3.14241195879E-03  3.22002953417E-03  3.29956426366E-03  3.38106350098E-03
  3.46457576945E-03  3.55015079096E-03  3.63783951549E-03  3.72769415153E-03
  3.81976819707E-03  3.91411647154E-03  4.01079514838E-03  4.10986178855E-03
  4.21137537472E-03  4.31539634648E-03  4.42198663624E-03  4.53120970615E-03
  4.64313058590E-03  4.75781591137E-03  4.87533396438E-03  4.99575471330E-03
  5.11914985472E-03  5.24559285613E-03  5.37515899967E-03  5.50792542697E-03
  5.64397118501E-03  5.78337727328E-03  5.92622669193E-03  6.07260449122E-03
  6.22259782216E-03  6.37629598836E-03  6.53379049928E-03  6.69517512461E-03
  6.86054595019E-03  7.03000143516E-03  7.20364247060E-03  7.38157243963E-03
  7.56389727889E-03  7.75072554168E-03  7.94216846255E-03  8.13834002358E-03
  8.33935702216E-03  8.54533914061E-03  8.75640901738E-03  8.97269232011E-03
  9.19431782042E-03  9.42141747058E-03  9.65412648211E-03  9.89258340621E-03
  1.01369302163E-02  1.03873123927E-02  1.06438790088E-02  1.09067828203E-02
  1.11761803560E-02  1.14522320108E-02  1.17351021414E-02  1.20249591643E-02
  1.23219756557E-02  1.26263284544E-02  1.29381987672E-02  1.32577722767E-02
  1.35852392520E-02  1.39207946615E-02  1.42646382896E-02  1.46169748554E-02
  1.49780141343E-02  1.53479710834E-02  1.57270659692E-02  1.61155244986E-02
  1.65135779538E-02  1.69214633292E-02  1.73394234735E-02  1.77677072332E-02
  1.82065696019E-02  1.86562718711E-02  1.91170817863E-02  1.95892737064E-02
  2.00731287670E-02  2.05689350475E-02  2.10769877432E-02  2.15975893404E-02
  2.21310497971E-02  2.26776867271E-02  2.32378255893E-02  2.38117998814E-02
  2.43999513384E-02  2.50026301365E-02  2.56201951009E-02  2.62530139198E-02
  2.69014633637E-02  2.75659295087E-02  2.82468079676E-02  2.89445041244E-02
  2.96594333763E-02  3.03920213807E-02  3.11427043088E-02  3.19119291052E-02
  3.27001537541E-02  3.35078475518E-02  3.43354913864E-02  3.51835780236E-02
  3.60526124008E-02  3.69431119271E-02  3.78556067917E-02  3.87906402794E-02
  3.97487690943E-02  4.07305636910E-02  4.17366086141E-02  4.27675028469E-02
  4.38238601672E-02  4.49063095134E-02  4.60154953583E-02  4.71520780937E-02
  4.83167344226E-02  4.95101577628E-02  5.07330586596E-02  5.19861652085E-02
  5.32702234891E-02  5.45859980093E-02  5.59342721601E-02  5.73158486825E-02
  5.87315501450E-02  6.01822194335E-02  6.16687202535E-02  6.31919376438E-02
  6.47527785036E-02  6.63521721326E-02  6.79910707843E-02  6.96704502327E-02
  7.13913103534E-02  7.31546757192E-02  7.49615962094E-02  7.68131476358E-02
  7.87104323824E-02  8.06545800623E-02  8.26467481898E-02  8.46881228701E-02
  8.67799195050E-02  8.89233835167E-02  9.11197910896E-02  9.33704499295E-02
  9.56767000428E-02  9.80399145338E-02  1.00461500423E-01  1.02942899483E-01
  1.05485589101E-01  1.08091083151E-01  1.10760932905E-01  1.13496727948E-01
  1.16300097128E-01  1.19172709527E-01  1.22116275453E-01  1.25132547456E-01
  1.28223321378E-01  1.31390437416E-01  1.34635781221E-01  1.37961285017E-01
  1.41368928757E-01  1.44860741297E-01  1.48438801607E-01  1.52105240007E-01
  1.55862239435E-01  1.59712036749E-01  1.63656924057E-01  1.67699250081E-01
  1.71841421558E-01  1.76085904670E-01  1.80435226516E-01  1.84891976611E-01
  1.89458808433E-01  1.94138441001E-01  1.98933660494E-01  2.03847321908E-01
  2.08882350759E-01  2.14041744823E-01  2.19328575920E-01  2.24745991745E-01
  2.30297217741E-01  2.35985559020E-01  2.41814402327E-01  2.47787218065E-01
  2.53907562351E-01  2.60179079141E-01  2.66605502396E-01  2.73190658305E-01
  2.79938467565E-01  2.86852947714E-01  2.93938215523E-01  3.01198489446E-01
  3.08638092136E-01  3.16261453011E-01  3.24073110901E-01  3.32077716740E-01
  3.40280036343E-01  3.48684953241E-01  3.57297471586E-01  3.66122719134E-01
  3.75165950297E-01  3.84432549269E-01  3.93928033236E-01  4.03658055657E-01
  4.13628409632E-01  4.23845031350E-01  4.34314003624E-01  4.45041559514E-01
  4.56034086034E-01  4.67298127959E-01  4.78840391719E-01  4.90667749395E-01
  5.02787242805E-01  5.15206087702E-01  5.27931678068E-01  5.40971590516E-01
  5.54333588802E-01  5.68025628446E-01  5.82055861468E-01  5.96432641247E-01
  6.11164527485E-01  6.26260291314E-01  6.41728920510E-01  6.57579624846E-01
  6.73821841580E-01  6.90465241067E-01  7.07519732521E-01  7.24995469915E-01
  7.42902858022E-01  7.61252558615E-01  7.80055496812E-01  7.99322867584E-01
  8.19066142413E-01  8.39297076131E-01  8.60027713911E-01  8.81270398445E-01
  9.03037777286E-01  9.25342810385E-01  9.48198777802E-01  9.71619287613E-01
  9.95618284017E-01  1.02021005563E+00  1.04540924401E+00  1.07123085233E+00
  1.09769025439E+00  1.12480320367E+00  1.15258584280E+00  1.18105471312E+00
  1.21022676453E+00  1.24011936562E+00  1.27075031395E+00  1.30213784670E+00
  1.33430065151E+00  1.36725787761E+00  1.40102914718E+00  1.43563456712E+00
  1.47109474093E+00  1.50743078103E+00  1.54466432132E+00  1.58281753006E+00
  1.62191312305E+00  1.66197437719E+00  1.70302514430E+00  1.74508986537E+00
  1.78819358504E+00  1.83236196659E+00  1.87762130717E+00
  </PP_RAB>
</PP_MESH>


<PP_LOCAL>
 -1.36491197859E+01 -1.36491194939E+01 -1.36491191220E+01 -1.36491186634E+01
 -1.36491181107E+01 -1.36491174557E+01 -1.36491166891E+01 -1.36491158011E+01
 -1.36491147804E+01 -1.36491136149E+01 -1.36491122910E+01 -1.36491107937E+01
 -1.36491091067E+01 -1.36491072117E+01 -1.36491050887E+01 -1.36491027157E+01
 -1.36491000682E+01 -1.36490971194E+01 -1.36490938398E+01 -1.36490901966E+01
 -1.36490861539E+01 -1.36490816720E+01 -1.36490767071E+01 -1.36490712112E+01
 -1.36490651311E+01 -1.36490584083E+01 -1.36490509783E+01 -1.36490427699E+01
 -1.36490337049E+01 -1.36490236970E+01 -1.36490126509E+01 -1.36490004620E+01
 -1.36489870147E+01 -1.36489721818E+01 -1.36489558231E+01 -1.36489377840E+01
 -1.36489178945E+01 -1.36488959669E+01 -1.36488717948E+01 -1.36488451505E+01
 -1.36488157833E+01 -1.36487834170E+01 -1.36487477474E+01 -1.36487084394E+01
 -1.36486651237E+01 -1.36486173939E+01 -1.36485648020E+01 -1.36485068548E+01
 -1.36484430091E+01 -1.36483726668E+01 -1.36482951690E+01 -1.36482097904E+01
 -1.36481157322E+01 -1.36480121149E+01 -1.36478979704E+01 -1.36477722328E+01
 -1.36476337286E+01 -1.36474811661E+01 -1.36473131239E+01 -1.36471280373E+01
 -1.36469241843E+01 -1.36466996704E+01 -1.36464524109E+01 -1.36461801121E+01
 -1.36458802511E+01 -1.36455500525E+01 -1.36451864643E+01 -1.36447861297E+01
 -1.36443453582E+01 -1.36438600922E+01 -1.36433258715E+01 -1.36427377940E+01
 -1.36420904727E+01 -1.36413779886E+01 -1.36405938399E+01 -1.36397308849E+01
 -1.36387812816E+01 -1.36377364200E+01 -1.36365868495E+01 -1.36353221988E+01
 -1.36339310891E+01 -1.36324010393E+01 -1.36307183631E+01 -1.36288680566E+01
 -1.36268336764E+01 -1.36245972075E+01 -1.36221389192E+01 -1.36194372093E+01
 -1.36164684359E+01 -1.36132067345E+01 -1.36096238209E+01 -1.36056887785E+01
 -1.36013678290E+01 -1.35966240858E+01 -1.35914172888E+01 -1.35857035205E+01
 -1.35794349014E+01 -1.35725592657E+01 -1.35650198150E+01 -1.35567547500E+01
 -1.35476968810E+01 -1.35377732155E+01 -1.35269045245E+01 -1.35150048872E+01
 -1.35019812156E+01 -1.34877327606E+01 -1.34721506013E+01 -1.34551171211E+01
 -1.34365054735E+01 -1.34161790439E+01 -1.33939909110E+01 -1.33697833174E+01
 -1.33433871568E+01 -1.33146214892E+01 -1.32832930957E+01 -1.32491960893E+01
 -1.32121115972E+01 -1.31718075362E+01 -1.31280385034E+01 -1.30805458096E+01
 -1.30290576851E+01 -1.29732896917E+01 -1.29129453798E+01 -1.28477172329E+01
 -1.27772879450E+01 -1.27013320842E+01 -1.26195181948E+01 -1.25315113990E+01
 -1.24369765578E+01 -1.23355820550E+01 -1.22270042685E+01 -1.21109327886E+01
 -1.19870764437E+01 -1.18551701789E+01 -1.17149828274E+01 -1.15663257902E+01
 -1.14090626205E+01 -1.12431194696E+01 -1.10684963122E+01 -1.08852788111E+01
 -1.06936506116E+01 -1.04939057717E+01 -1.02864609293E+01 -1.00718666873E+01
 -9.85081755168E+00 -9.62415960044E+00 -9.39289487606E+00 -9.15818130688E+00
 -8.92132676578E+00 -8.68377569366E+00 -8.44708657109E+00 -8.21289845243E+00
 -7.98288483716E+00 -7.75869342303E+00 -7.54187087614E+00 -7.33377282248E+00
 -7.13546103127E+00 -6.94759252203E+00 -6.77030949182E+00 -6.60314507772E+00
 -6.44496878271E+00 -6.29400789130E+00 -6.14799870787E+00 -6.00454572364E+00
 -5.86180019935E+00 -5.71961524660E+00 -5.58013837532E+00 -5.44403173891E+00
 -5.31121931450E+00 -5.18162706439E+00 -5.05518287267E+00 -4.93181648005E+00
 -4.81145941673E+00 -4.69404493285E+00 -4.57950792648E+00 -4.46778486852E+00
 -4.35881372467E+00 -4.25253387393E+00 -4.14888602363E+00 -4.04781212091E+00
 -3.94925526060E+00 -3.85315958962E+00 -3.75947020834E+00 -3.66813306901E+00
 -3.57909487230E+00 -3.49230296255E+00 -3.40770522303E+00 -3.32524997274E+00
 -3.24488586636E+00 -3.16656179992E+00 -3.09022682443E+00 -3.01583007073E+00
 -2.94332068891E+00 -2.87264780620E+00 -2.80376050740E+00 -2.73660784249E+00
 -2.67113886580E+00 -2.60730271166E+00 -2.54504871058E+00 -2.48432654998E+00
 -2.42508648234E+00 -2.36727958196E+00 -2.31085804994E+00 -2.25577556358E+00
 -2.20198766299E+00 -2.14945216271E+00 -2.09812957020E+00 -2.04798348595E+00
 -1.99898095186E+00 -1.95109270612E+00 -1.90429329437E+00 -1.85856098152E+00
 -1.81387740744E+00 -1.77022693869E+00 -1.72759569386E+00 -1.68597027128E+00
 -1.64533630064E+00 -1.60567709219E+00 -1.56697289880E+00 -1.52920161881E+00
 -1.49234080103E+00 -1.45636849910E+00 -1.42126329569E+00 -1.38700428974E+00
 -1.35357108396E+00 -1.32094377278E+00 -1.28910293040E+00 -1.25802959929E+00
 -1.22770527890E+00 -1.19811191461E+00 -1.16923188700E+00 -1.14104800137E+00
 -1.11354347748E+00 -1.08670193957E+00 -1.06050740663E+00 -1.03494428284E+00
 -1.00999734834E+00 -9.85651750108E-01 -9.61892993176E-01 -9.38706931957E-01
 -9.16079761840E-01 -8.93998010969E-01 -8.72448532223E-01 -8.51418495387E-01
 -8.30895379513E-01 -8.10866965466E-01 -7.91321328648E-01 -7.72246831900E-01
 -7.53632118572E-01 -7.35466105759E-01 -7.17737977710E-01 -7.00437179379E-01
 -6.83553410149E-01 -6.67076617692E-01 -6.50996991989E-01 -6.35304959490E-01
 -6.19991177408E-01 -6.05046528162E-01 -5.90462113948E-01 -5.76229251437E-01
 -5.62339466612E-01 -5.48784489716E-01 -5.35556250333E-01 -5.22646872580E-01
 -5.10048670421E-01 -4.97754143087E-01 -4.85755970612E-01 -4.74047009478E-01
 -4.62620288356E-01 -4.51469003958E-01 -4.40586516989E-01 -4.29966348188E-01
 -4.19602174479E-01 -4.09487825196E-01 -3.99617278419E-01 -3.89984657382E-01
 -3.80584226976E-01 -3.71410390335E-01 -3.62457685503E-01 -3.53720782183E-01
 -3.45194478562E-01 -3.36873698216E-01 -3.28753487085E-01 -3.20829010525E-01
 -3.13095550430E-01 -3.05548502420E-01 -2.98183373104E-01 -2.90995777402E-01
 -2.83981435935E-01 -2.77136172475E-01 -2.70455911462E-01 -2.63936675575E-01
 -2.57574583366E-01 -2.51365846946E-01 -2.45306769734E-01 -2.39393744251E-01
 -2.33623249976E-01 -2.27991851250E-01 -2.22496195228E-01 -2.17133009884E-01
 -2.11899102063E-01 -2.06791355580E-01 -2.01806729365E-01 -1.96942255650E-01
 -1.92195038207E-01 -1.87562250617E-01 -1.83041134592E-01 -1.78628998333E-01
 -1.74323214925E-01 -1.70121220772E-01 -1.66020514074E-01 -1.62018653337E-01
 -1.58113255915E-01 -1.54301996599E-01 -1.50582606226E-01 -1.46952870329E-01
 -1.43410627821E-01 -1.39953769710E-01 -1.36580237835E-01 -1.33288023651E-01
 -1.30075167025E-01 -1.26939755075E-01 -1.23879921026E-01 -1.20893843101E-01
 -1.17979743438E-01 -1.15135887029E-01 -1.12360580686E-01 -1.09652172036E-01
 -1.07009048537E-01 -1.04429636515E-01 -1.01912400230E-01 -9.94558409581E-02
 -9.70584961043E-02 -9.47189383277E-02 -9.24357746927E-02 -9.02076458405E-02
 -8.80332251786E-02 -8.59112180917E-02 -8.38403611708E-02 -8.18194214607E-02
 -7.98471957263E-02 -7.79225097358E-02 -7.60442175620E-02 -7.42112008998E-02
 -7.24223684003E-02 -7.06766550213E-02 -6.89730213929E-02 -6.73104531989E-02
 -6.56879605727E-02 -6.41045775083E-02 -6.25593612845E-02 -6.10513919045E-02
 -5.95797715473E-02 -5.81436240336E-02 -5.67420943043E-02 -5.53743479109E-02
 -5.40395705191E-02 -5.27369674237E-02 -5.14657630758E-02 -5.02252006204E-02
 -4.90145414467E-02 -4.78330647474E-02 -4.66800670903E-02 -4.55548619989E-02
 -4.44567795442E-02 -4.33851659453E-02 -4.23393831808E-02 -4.13188086082E-02
 -4.03228345937E-02 -3.93508681504E-02 -3.84023305849E-02 -3.74766571532E-02
 -3.65732967242E-02 -3.56917114513E-02 -3.48313764529E-02 -3.39917794993E-02
 -3.31724207078E-02 -3.23728122454E-02 -3.15924780378E-02 -3.08309534867E-02
 -3.00877851924E-02 -2.93625306845E-02 -2.86547581580E-02 -2.79640462165E-02
 -2.72899836210E-02 -2.66321690456E-02 -2.59902108379E-02
</PP_LOCAL>


<PP_NONLOCAL>
  <PP_BETA>
    1    0             Beta    L
   304
  6.57790760849E-02  6.74038134648E-02  6.90686811058E-02  7.07746701279E-02
  7.25227923532E-02  7.43140800455E-02  7.61496004072E-02  7.80304445937E-02
  7.99577309983E-02  8.19326055488E-02  8.39562423754E-02  8.60298444987E-02
  8.81546445331E-02  9.03319054069E-02  9.25629210987E-02  9.48490173917E-02
  9.71915526442E-02  9.95919185789E-02  1.02051541089E-01  1.04571881062E-01
  1.07154435226E-01  1.09800737007E-01  1.12512357415E-01  1.15290905938E-01
  1.18138031464E-01  1.21055423223E-01  1.24044811739E-01  1.27107969810E-01
  1.30246713507E-01  1.33462903190E-01  1.36758444546E-01  1.40135289641E-01
  1.43595438002E-01  1.47140937703E-01  1.50773886487E-01  1.54496432889E-01
  1.58310777390E-01  1.62219173577E-01  1.66223929325E-01  1.70327407995E-01
  1.74532029636E-01  1.78840272207E-01  1.83254672807E-01  1.87777828910E-01
  1.92412399604E-01  1.97161106839E-01  2.02026736661E-01  2.07012140458E-01
  2.12120236177E-01  2.17354009543E-01  2.22716515247E-01  2.28210878109E-01
  2.33840294215E-01  2.39608031996E-01  2.45517433267E-01  2.51571914199E-01
  2.57774966215E-01  2.64130156797E-01  2.70641130188E-01  2.77311607972E-01
  2.84145389514E-01  2.91146352231E-01  2.98318451680E-01  3.05665721420E-01
  3.13192272631E-01  3.20902293447E-01  3.28800047963E-01  3.36889874869E-01
  3.45176185673E-01  3.53663462436E-01  3.62356254975E-01  3.71259177458E-01
  3.80376904301E-01  3.89714165296E-01  3.99275739863E-01  4.09066450312E-01
  4.19091154003E-01  4.29354734260E-01  4.39862089890E-01  4.50618123134E-01
  4.61627725879E-01  4.72895763892E-01  4.84427058883E-01  4.96226368114E-01
  5.08298361280E-01  5.20647594358E-01  5.33278480069E-01  5.46195254587E-01
  5.59401940071E-01  5.72902302563E-01  5.86699804764E-01  6.00797553133E-01
  6.15198238727E-01  6.29904071115E-01  6.44916704703E-01  6.60237156681E-01
  6.75865715805E-01  6.91801841133E-01  7.08044049796E-01  7.24589792820E-01
  7.41435317961E-01  7.58575518481E-01  7.76003766732E-01  7.93711731412E-01
  8.11689177307E-01  8.29923746381E-01  8.48400719064E-01  8.67102754663E-01
  8.86009609931E-01  9.05097834927E-01  9.24340445557E-01  9.43706572395E-01
  9.63161085769E-01  9.82664197516E-01  1.00217104038E+00  1.02163122669E+00
  1.04098838887E+00  1.06017970519E+00  1.07913541554E+00  1.09777833349E+00
  1.11602336225E+00  1.13377702462E+00  1.15093701886E+00  1.16739181524E+00
  1.18302031093E+00  1.19769156412E+00  1.21126463186E+00  1.22358854025E+00
  1.23450241957E+00  1.24383584149E+00  1.25140940001E+00  1.25703558208E+00
  1.26051997794E+00  1.26166288465E+00  1.26026135856E+00  1.25611177318E+00
  1.24901293724E+00  1.23876982302E+00  1.22519794606E+00  1.20812842276E+00
  1.18741371096E+00  1.16293400876E+00  1.13460424573E+00  1.10238154780E+00
  1.06627298886E+00  1.02634335757E+00  9.82722565342E-01  9.35612199741E-01
  8.85290589293E-01  8.32115592905E-01  7.76524169300E-01  7.19027632676E-01
  6.60201384206E-01  6.00667862408E-01  5.41071535326E-01  4.82045047930E-01
  4.24166260658E-01  3.67907043604E-01  3.13576570361E-01  2.61264827814E-01
  2.10796594860E-01  1.61712890978E-01  1.13306734801E-01  6.47541757383E-02
  1.54015763478E-02 -3.47018088074E-02 -8.44646802732E-02 -1.33389992578E-01
 -1.81288400795E-01 -2.27957384624E-01 -2.73181431062E-01 -3.16732444613E-01
 -3.58370425140E-01 -3.97844456351E-01 -4.34894050182E-01 -4.69250893811E-01
 -5.00641046329E-01 -5.28787631018E-01 -5.53414066202E-01 -5.74247872468E-01
 -5.91025086237E-01 -6.03495298783E-01 -6.11427325497E-01 -6.14615492051E-01
 -6.12886502006E-01 -6.06106824045E-01 -5.94190506519E-01 -5.77107292517E-01
 -5.54890870588E-01 -5.27647055253E-01 -4.95561648169E-01 -4.58907686430E-01
 -4.18051739719E-01 -3.73458874058E-01 -3.25695857228E-01 -2.75432140043E-01
 -2.23438108291E-01 -1.70580061651E-01 -1.17811337153E-01 -6.61589548596E-02
 -1.67051227721E-02  2.94371001864E-02  7.11547101968E-02  1.07372954343E-01
  1.37101461368E-01  1.59488745877E-01  1.73885089969E-01  1.79913001864E-01
  1.77543079096E-01  1.67170904905E-01  1.49687261313E-01  1.26529085570E-01
  9.96918458904E-02  7.16750073049E-02  4.53206900002E-02  2.34912061759E-02
  8.51348120366E-03  1.29650815718E-03  1.36341618060E-14  0.00000000000E+00
  0.00000000000E+00  0.00000000000E+00  0.00000000000E+00  0.00000000000E+00
  0.00000000000E+00  0.00000000000E+00  0.00000000000E+00  0.00000000000E+00
  0.00000000000E+00  0.00000000000E+00  0.00000000000E+00  0.00000000000E+00
  0.00000000000E+00  0.00000000000E+00  0.00000000000E+00  0.00000000000E+00
  0.00000000000E+00  0.00000000000E+00  0.00000000000E+00  0.00000000000E+00
  0.00000000000E+00  0.00000000000E+00  0.00000000000E+00  0.00000000000E+00
  0.00000000000E+00  0.00000000000E+00  0.00000000000E+00  0.00000000000E+00
  0.00000000000E+00  0.00000000000E+00  0.00000000000E+00  0.00000000000E+00
  0.00000000000E+00  0.00000000000E+00  0.00000000000E+00  0.00000000000E+00
  0.00000000000E+00  0.00000000000E+00  0.00000000000E+00  0.00000000000E+00
  0.00000000000E+00  0.00000000000E+00  0.00000000000E+00  0.00000000000E+00
  0.00000000000E+00  0.00000000000E+00  0.00000000000E+00  0.00000000000E+00
  0.00000000000E+00  0.00000000000E+00  0.00000000000E+00  0.00000000000E+00
  0.00000000000E+00  0.00000000000E+00  0.00000000000E+00  0.00000000000E+00
  0.00000000000E+00  0.00000000000E+00  0.00000000000E+00  0.00000000000E+00
  0.00000000000E+00  0.00000000000E+00  0.00000000000E+00  0.00000000000E+00
  0.00000000000E+00  0.00000000000E+00  0.00000000000E+00  0.00000000000E+00
  0.00000000000E+00  0.00000000000E+00  0.00000000000E+00  0.00000000000E+00
  0.00000000000E+00  0.00000000000E+00  0.00000000000E+00  0.00000000000E+00
  0.00000000000E+00  0.00000000000E+00  0.00000000000E+00  0.00000000000E+00
  0.00000000000E+00  0.00000000000E+00  0.00000000000E+00  0.00000000000E+00
  </PP_BETA>
  <PP_BETA>
    2    1             Beta    L
   304
  5.47570035622E-04  5.74954022660E-04  6.03707479094E-04  6.33898891225E-04