<UPF version="2.0.1">
  <PP_INFO>
    Generated using FHI98PP, converted with fhi2upf.x v.5.0.2
    Author: unknown
    Generation date: unknown
    Pseudopotential type: SL
    Element: Cu
    Functional: SLA-PW

    Suggested minimum cutoff for wavefunctions:   0. Ry
    Suggested minimum cutoff for charge density:   0. Ry
    The Pseudo was generated with a Scalar-Relativistic Calculation
    L component and cutoff radius for Local Potential:  0   0.0000

    Valence configuration: 
    nl pn  l   occ       Rcut    Rcut US       E pseu
    3s  3  0  2.00      0.000      0.000     0.000000
    2p  2  1  6.00      0.000      0.000     0.000000
    3d  3  2  7.00      0.000      0.000     0.000000

    Generation configuration: not available.
    Comment:
    OPIUM generated Cu potential
  </PP_INFO>
  <!--                               -->
  <!-- END OF HUMAN READABLE SECTION -->
  <!--                               -->
  <PP_HEADER generated="Generated using FHI98PP, converted with fhi2upf.x v.5.0.2"
             author="unknown"
             date="unknown"
             comment="OPIUM generated Cu potential"
             element="Cu"
             pseudo_type="SL"
             relativistic="scalar"
             is_ultrasoft="F"
             is_paw="F"
             is_coulomb="F"
             has_so="F"
             has_wfc="F"
             has_gipaw="F"
             paw_as_gipaw="F"
             core_correction="F"
             functional="SLA-PW"
             z_valence="1.900000000000000E+001"
             total_psenergy="0.000000000000000E+000"
             wfc_cutoff="0.000000000000000E+000"
             rho_cutoff="0.000000000000000E+000"
             l_max="2"
             l_max_rho="0"
             l_local="0"
             mesh_size="1163"
             number_of_wfc="3"
             number_of_proj="2"/>
  <PP_MESH dx="1.299999999999981E-002" mesh="1163" xmin="-6.965476485318534E+000" rmax="1.183004629928761E+002"
zmesh="2.900000000000000E+001">
    <PP_R type="real" size="1163" columns="4">
 3.254872647376676E-005  3.297462224240671E-005  3.340609080068841E-005  3.384320506782516E-005 
 3.428603891716848E-005  3.473466718869288E-005  3.518916570164404E-005  3.564961126735241E-005 
 3.611608170221446E-005  3.658865584084397E-005  3.706741354939512E-005  3.755243573906015E-005 
 3.804380437974351E-005  3.854160251391498E-005  3.904591427064405E-005  3.955682487981790E-005 
 4.007442068654552E-005  4.059878916575016E-005  4.113001893695286E-005  4.166819977924932E-005 
 4.221342264648283E-005  4.276577968261562E-005  4.332536423730146E-005  4.389227088166198E-005 
 4.446659542426934E-005  4.504843492733820E-005  4.563788772312941E-005  4.623505343056842E-005 
 4.684003297208111E-005  4.745292859064987E-005  4.807384386709302E-005  4.870288373757010E-005 
 4.934015451131641E-005  4.998576388860948E-005  5.063982097897068E-005  5.130243631960498E-005 
 5.197372189408208E-005  5.265379115126175E-005  5.334275902446710E-005  5.404074195090852E-005 
 5.474785789136183E-005  5.546422635010399E-005  5.618996839510952E-005  5.692520667851140E-005 
 5.767006545732944E-005  5.842467061447011E-005  5.918914968000100E-005  5.996363185270370E-005 
 6.074824802190875E-005  6.154313078961621E-005  6.234841449290574E-005  6.316423522663981E-005 
 6.399073086646417E-005  6.482804109210910E-005  6.567630741099561E-005  6.653567318215053E-005 
 6.740628364043458E-005  6.828828592108735E-005  6.918182908459350E-005  7.008706414187440E-005 
 7.100414407980925E-005  7.193322388709034E-005  7.287446058041637E-005  7.382801323102875E-005 
 7.479404299159501E-005  7.577271312344389E-005  7.676418902415703E-005  7.776863825552144E-005 
 7.878623057184792E-005  7.981713794865989E-005  8.086153461175769E-005  8.191959706666316E-005 
 8.299150412844947E-005  8.407743695196127E-005  8.517757906243040E-005  8.629211638649196E-005 
 8.742123728360642E-005  8.856513257789281E-005  8.972399559037847E-005  9.089802217167065E-005 
 9.208741073505598E-005  9.329236229003243E-005  9.451308047628079E-005  9.574977159807987E-005 
 9.700264465917275E-005  9.827191139808876E-005  9.955778632392765E-005  1.008604867526125E-004 
 1.021802328436162E-004  1.035172476371693E-004  1.048717570919542E-004  1.062439901232926E-004 
 1.076341786418327E-004  1.090425575927431E-004  1.104693649954185E-004  1.119148419837059E-004 
 1.133792328466567E-004  1.148627850698121E-004  1.163657493770289E-004  1.178883797728521E-004 
 1.194309335854427E-004  1.209936715100664E-004  1.225768576531519E-004  1.241807595769256E-004 
 1.258056483446300E-004  1.274517985663343E-004  1.291194884453439E-004  1.308089998252177E-004 
 1.325206182373999E-004  1.342546329494762E-004  1.360113370140600E-004  1.377910273183192E-004 
 1.395940046341513E-004  1.414205736690137E-004  1.432710431174209E-004  1.451457257131138E-004 
 1.470449382819132E-004  1.489690017952633E-004  1.509182414244775E-004  1.528929865956925E-004 
 1.548935710455422E-004  1.569203328775603E-004  1.589736146193203E-004  1.610537632803235E-004 
 1.631611304106446E-004  1.652960721603444E-004  1.674589493396600E-004  1.696501274799824E-004 
 1.718699768956327E-004  1.741188727464455E-004  1.763971951011723E-004  1.787053290017135E-004 
 1.810436645281919E-004  1.834125968648771E-004  1.858125263669722E-004  1.882438586282751E-004 
 1.907070045497247E-004  1.932023804088444E-004  1.957304079300935E-004  1.982915143561401E-004 
 2.008861325200659E-004  2.035147009185160E-004  2.061776637858060E-004  2.088754711689986E-004 
 2.116085790039626E-004  2.143774491924272E-004  2.171825496800443E-004  2.200243545354728E-004 
 2.229033440304971E-004  2.258200047211941E-004  2.287748295301624E-004  2.317683178298275E-004 
 2.348009755268369E-004  2.378733151475593E-004  2.409858559247032E-004  2.441391238850681E-004 
 2.473336519384442E-004  2.505699799676759E-004  2.538486549199030E-004  2.571702308989959E-004 
 2.605352692592008E-004  2.639443387000096E-004  2.673980153622717E-004  2.708968829255632E-004 
 2.744415327068301E-004  2.780325637603216E-004  2.816705829788332E-004  2.853562051962713E-004 
 2.890900532915629E-004  2.928727582939233E-004  2.967049594895007E-004  3.005873045294183E-004 
 3.045204495392283E-004  3.085050592297987E-004  3.125418070096506E-004  3.166313750987669E-004 
 3.207744546438883E-004  3.249717458353186E-004  3.292239580252595E-004  3.335318098476913E-004 
 3.378960293398254E-004  3.423173540651432E-004  3.467965312380466E-004  3.513343178501383E-004 
 3.559314807981563E-004  3.605887970135806E-004  3.653070535939365E-004  3.700870479358159E-004 
 3.749295878696393E-004  3.798354917961815E-004  3.848055888248824E-004  3.898407189139693E-004 
 3.949417330124112E-004  4.001094932037317E-004  4.053448728517030E-004  4.106487567479462E-004 
 4.160220412614638E-004  4.214656344901270E-004  4.269804564141481E-004  4.325674390515580E-004 
 4.382275266157201E-004  4.439616756749040E-004  4.497708553139486E-004  4.556560472980395E-004 
 4.616182462386293E-004  4.676584597615296E-004  4.737777086772018E-004  4.799770271532773E-004 
 4.862574628893334E-004  4.926200772939578E-004  4.990659456641281E-004  5.055961573669410E-004 
 5.122118160237165E-004  5.189140396965137E-004  5.257039610770855E-004  5.325827276783055E-004 
 5.395515020281014E-004  5.466114618659249E-004  5.537638003417919E-004  5.610097262179281E-004 
 5.683504640730526E-004  5.757872545093343E-004  5.833213543620575E-004  5.909540369120295E-004 
 5.986865921007671E-004  6.065203267485018E-004  6.144565647750340E-004  6.224966474234796E-004 
 6.306419334869416E-004  6.388937995381518E-004  6.472536401621129E-004  6.557228681917877E-004 
 6.643029149468712E-004  6.729952304756854E-004  6.818012838002439E-004  6.907225631645176E-004 
 6.997605762859531E-004  7.089168506102783E-004  7.181929335696474E-004  7.275903928441583E-004 
 7.371108166267954E-004  7.467558138918380E-004  7.565270146667789E-004  7.664260703078060E-004 
 7.764546537788833E-004  7.866144599344868E-004  7.969072058060375E-004  8.073346308920855E-004 
 8.178984974522888E-004  8.286005908052392E-004  8.394427196301856E-004  8.504267162727040E-004 
 8.615544370543702E-004  8.728277625864815E-004  8.842485980878851E-004  8.958188737069621E-004 
 9.075405448478312E-004  9.194155925008140E-004  9.314460235772274E-004  9.436338712485574E-004 
 9.559811952900679E-004  9.684900824289102E-004  9.811626466967830E-004  9.940010297872100E-004 
 1.007007401417489E-003  1.020183959695383E-003  1.033532931490602E-003  1.047056572811151E-003 
 1.060757169184602E-003  1.074637036044349E-003  1.088698519120928E-003  1.102943994838445E-003 
 1.117375870716205E-003  1.131996585775578E-003  1.146808610952208E-003  1.161814449513604E-003 
 1.177016637482199E-003  1.192417744063943E-003  1.208020372082502E-003  1.223827158419149E-003 
 1.239840774458396E-003  1.256063926539467E-003  1.272499356413677E-003  1.289149841707793E-003 
 1.306018196393458E-003  1.323107271262763E-003  1.340419954410036E-003  1.357959171719933E-003 
 1.375727887361924E-003  1.393729104291245E-003  1.411965864756402E-003  1.430441250813318E-003 
 1.449158384846209E-003  1.468120430095277E-003  1.487330591191300E-003  1.506792114697225E-003 
 1.526508289656845E-003  1.546482448150653E-003  1.566717965858977E-003  1.587218262632473E-003 
 1.607986803070085E-003  1.629027097104581E-003  1.650342700595729E-003  1.671937215931253E-003 
 1.693814292635643E-003  1.715977627986929E-003  1.738430967641537E-003  1.761178106267311E-003 
 1.784222888184819E-003  1.807569208017053E-003  1.831221011347633E-003  1.855182295387612E-003 
 1.879457109651025E-003  1.904049556639258E-003  1.928963792534387E-003  1.954204027901573E-003 
 1.979774528400670E-003  2.005679615507121E-003  2.031923667242305E-003  2.058511118913429E-003 
 2.085446463863103E-003  2.112734254228735E-003  2.140379101711843E-003  2.168385678357450E-003 
 2.196758717343666E-003  2.225503013781612E-003  2.254623425525800E-003  2.284124873995123E-003 
 2.314012345004592E-003  2.344290889607938E-003  2.374965624951267E-003  2.406041735137861E-003 
 2.437524472104304E-003  2.469419156508077E-003  2.501731178626757E-003  2.534465999268987E-003 
 2.567629150697368E-003  2.601226237563424E-003  2.635262937854797E-003  2.669745003854848E-003 
 2.704678263114801E-003  2.740068619438617E-003  2.775922053880746E-003  2.812244625756945E-003 
 2.849042473668310E-003  2.886321816538722E-003  2.924088954665857E-003  2.962350270785943E-003 
 3.001112231152472E-003  3.040381386629002E-003  3.080164373796275E-003  3.120467916073808E-003 
 3.161298824856174E-003  3.202664000664137E-003  3.244570434310863E-003  3.287025208083382E-003 
 3.330035496939501E-003  3.373608569720410E-003  3.417751790379117E-003  3.462472619224978E-003 
 3.507778614184508E-003  3.553677432078687E-003  3.600176829916983E-003  3.647284666208304E-003 
 3.695008902289109E-003  3.743357603668876E-003  3.792338941393216E-003  3.841961193424785E-003 
 3.892232746042282E-003  3.943162095257750E-003  3.994757848252425E-003  4.047028724831364E-003 
 4.099983558897119E-003  4.153631299942690E-003  4.207981014563991E-003  4.263041887992156E-003 
 4.318823225645843E-003  4.375334454703881E-003  4.432585125698484E-003  4.490584914129312E-003 
 4.549343622098654E-003  4.608871179968007E-003  4.669177648036339E-003  4.730273218240280E-003 
 4.792168215876611E-003  4.854873101347249E-003  4.918398471927083E-003  4.982755063554937E-003 
 5.047953752647970E-003  5.114005557939819E-003  5.180921642342788E-003  5.248713314834412E-003 
 5.317392032368684E-003  5.386969401812334E-003  5.457457181906398E-003  5.528867285253481E-003 
 5.601211780331010E-003  5.674502893530841E-003  5.748753011225544E-003  5.823974681861735E-003 
 5.900180618080787E-003  5.977383698867290E-003  6.055596971725654E-003  6.134833654885145E-003 
 6.215107139533809E-003  6.296430992081612E-003  6.378818956453191E-003  6.462284956410616E-003 
 6.546843097906538E-003  6.632507671468133E-003  6.719293154612210E-003  6.807214214291983E-003 
 6.896285709375801E-003  6.986522693158330E-003  7.077940415904602E-003  7.170554327427346E-003 
 7.264380079698037E-003  7.359433529492126E-003  7.455730741068868E-003  7.553287988886205E-003 
 7.652121760351220E-003  7.752248758606524E-003  7.853685905353135E-003  7.956450343710283E-003 
 8.060559441112638E-003  8.166030792245454E-003  8.272882222018102E-003  8.381131788576539E-003 
 8.490797786355144E-003  8.601898749168559E-003  8.714453453343938E-003  8.828480920894173E-003 
 8.944000422732679E-003  9.061031481930212E-003  9.179593877014324E-003  9.299707645311970E-003 
 9.421393086335888E-003  9.544670765215216E-003  9.669561516171104E-003  9.796086446037716E-003 
 9.924266937829345E-003  1.005412465435418E-002  1.018568154187539E-002  1.031895983382008E-002 
 1.045398205453682E-002  1.059077102310227E-002  1.072934985717767E-002  1.086974197691582E-002 
 1.101197110891912E-002  1.115606129024937E-002  1.130203687249019E-002  1.144992252586239E-002 
 1.159974324339339E-002  1.175152434514103E-002  1.190529148247278E-002  1.206107064240080E-002 
 1.221888815197390E-002  1.237877068272683E-002  1.254074525518780E-002  1.270483924344509E-002 
 1.287108037977326E-002  1.303949675932004E-002  1.321011684485440E-002  1.338296947157691E-002 
 1.355808385199287E-002  1.373548958084936E-002  1.391521664013682E-002  1.409729540415601E-002 
 1.428175664465144E-002  1.446863153601178E-002  1.465795166053844E-002  1.484974901378308E-002 
 1.504405600995490E-002  1.524090548739870E-002  1.544033071414470E-002  1.564236539353087E-002 
 1.584704366989888E-002  1.605440013436461E-002  1.626446983066407E-002  1.647728826107593E-002 
 1.669289139242145E-002  1.691131566214299E-002  1.713259798446200E-002  1.735677575661762E-002 
 1.758388686518690E-002  1.781396969248776E-002  1.804706312306563E-002  1.828320655026505E-002 
 1.852243988288725E-002  1.876480355193487E-002  1.901033851744483E-002  1.925908627541066E-002 
 1.951108886479553E-002  1.976638887463682E-002  2.002502945124385E-002  2.028705430548965E-002 
 2.055250772019823E-002  2.082143455762847E-002  2.109388026705598E-002  2.136989089245413E-002 
 2.164951308027548E-002  2.193279408733533E-002  2.221978178879812E-002  2.251052468626845E-002 
 2.280507191598798E-002  2.310347325713959E-002  2.340577914026015E-002  2.371204065576344E-002 
 2.402230956257453E-002  2.433663829687709E-002  2.465507998097537E-002  2.497768843227192E-002 
 2.530451817236284E-002  2.563562443625208E-002  2.597106318168632E-002  2.631089109861191E-002 
 2.665516561875562E-002  2.700394492533081E-002  2.735728796287035E-002  2.771525444718861E-002 
 2.807790487547343E-002  2.844530053651034E-002  2.881750352104048E-002  2.919457673225413E-002 
 2.957658389642144E-002  2.996358957366238E-002  3.035565916885754E-002  3.075285894270161E-002 
 3.115525602290178E-002  3.156291841552233E-002  3.197591501647792E-002  3.239431562317706E-002 
 3.281819094631813E-002  3.324761262183958E-002  3.368265322302667E-002  3.412338627277645E-002 
 3.456988625602325E-002  3.502222863232701E-002  3.548048984862591E-002  3.594474735215623E-002 
 3.641507960354105E-002  3.689156609005027E-002  3.737428733903420E-002  3.786332493153285E-002 
 3.835876151606335E-002  3.886068082258759E-002  3.936916767666302E-002  3.988430801377824E-002 
 4.040618889387630E-002  4.093489851606805E-002  4.147052623353806E-002  4.201316256864539E-002 
 4.256289922822221E-002  4.311982911907244E-002  4.368404636367314E-002  4.425564631608156E-002 
 4.483472557805010E-002  4.542138201535233E-002  4.601571477432242E-002  4.661782429861124E-002 
 4.722781234616145E-002  4.784578200640494E-002  4.847183771768512E-002  4.910608528490722E-002 
 4.974863189741971E-002  5.039958614712941E-002  5.105905804685387E-002  5.172715904891374E-002 
 5.240400206396852E-002  5.308970148009871E-002  5.378437318213766E-002  5.448813457125645E-002 
 5.520110458480477E-002  5.592340371641188E-002  5.665515403635019E-002  5.739647921216538E-002 
 5.814750452957661E-002  5.890835691365001E-002  5.967916495024941E-002  6.046005890776759E-002 
 6.125117075914203E-002  6.205263420415841E-002  6.286458469204657E-002  6.368715944437149E-002 
 6.452049747822411E-002  6.536473962971556E-002  6.622002857777884E-002  6.708650886828185E-002 
 6.796432693845597E-002  6.885363114164442E-002  6.975457177237405E-002  7.066730109175585E-002 
 7.159197335321715E-002  7.252874482857101E-002  7.347777383442629E-002  7.443922075894381E-002 
 7.541324808894213E-002  7.640002043735830E-002  7.739970457106790E-002  7.841246943906874E-002 
 7.943848620103403E-002  8.047792825623859E-002  8.153097127286371E-002  8.259779321768553E-002 
 8.367857438615188E-002  8.477349743285259E-002  8.588274740238859E-002  8.700651176064490E-002 
 8.814498042647261E-002  8.929834580378596E-002  9.046680281407887E-002  9.165054892936708E-002 
 9.284978420556154E-002  9.406471131627822E-002  9.529553558709045E-002  9.654246503022949E-002 
 9.780571037973904E-002  9.908548512708983E-002  1.003820055572601E-001  1.016954907852885E-001 
 1.030261627933049E-001  1.043742464680454E-001  1.057399696388597E-001  1.071235631162145E-001 
 1.085252607307003E-001  1.099452993725502E-001  1.113839190316745E-001  1.128413628382196E-001 
 1.143178771036578E-001  1.158137113624142E-001  1.173291184140386E-001  1.188643543659296E-001 
 1.204196786766171E-001  1.219953541996115E-001  1.235916472278263E-001  1.252088275385828E-001 
 1.268471684392023E-001  1.285069468131966E-001  1.301884431670616E-001  1.318919416776826E-001 
 1.336177302403628E-001  1.353661005174766E-001  1.371373479877624E-001  1.389317719962583E-001 
 1.407496758048926E-001  1.425913666437357E-001  1.444571557629229E-001  1.463473584852560E-001 
 1.482622942594940E-001  1.502022867143404E-001  1.521676637131376E-001  1.541587574092760E-001 
 1.561759043023294E-001  1.582194452949236E-001  1.602897257503502E-001  1.623870955509338E-001 
 1.645119091571627E-001  1.666645256675931E-001  1.688453088795391E-001  1.710546273505538E-001 
 1.732928544607174E-001  1.755603684757385E-001  1.778575526108828E-001  1.801847950957364E-001 
 1.825424892398185E-001  1.849310334990509E-001  1.873508315430984E-001  1.898022923235898E-001 
 1.922858301432317E-001  1.948018647258266E-001  1.973508212872075E-001  1.999331306071000E-001 
 2.025492291019253E-001  2.051995588985556E-001  2.078845679090349E-001  2.106047099062758E-001 
 2.133604446007505E-001  2.161522377181812E-001  2.189805610782495E-001  2.218458926743350E-001 
 2.247487167542971E-001  2.276895239023144E-001  2.306688111217942E-001  2.336870819193677E-001 
 2.367448463899835E-001  2.398426213031148E-001  2.429809301900950E-001  2.461603034325954E-001 
 2.493812783522613E-001  2.526443993015202E-001  2.559502177555792E-001  2.592992924056253E-001 
 2.626921892532457E-001  2.661294817060822E-001  2.696117506747411E-001  2.731395846709659E-001 
 2.767135799070989E-001  2.803343403968412E-001  2.840024780573334E-001  2.877186128125707E-001 
 2.914833726981714E-001  2.952973939675168E-001  2.991613211992790E-001  3.030758074063569E-001 
 3.070415141462361E-001  3.110591116327945E-001  3.151292788495697E-001  3.192527036645085E-001 
 3.234300829462191E-001  3.276621226817424E-001  3.319495380958671E-001  3.362930537720014E-001 
 3.406934037746331E-001  3.451513317733861E-001  3.496675911687023E-001  3.542429452191687E-001 
 3.588781671705096E-001  3.635740403862672E-001  3.683313584801913E-001  3.731509254503629E-001 
 3.780335558150709E-001  3.829800747504681E-001  3.879913182300277E-001  3.930681331658251E-001 
 3.982113775516677E-001  4.034219206080981E-001  4.087006429292945E-001  4.140484366318929E-001 
 4.194662055057584E-001  4.249548651667236E-001  4.305153432113357E-001  4.361485793736187E-001 
 4.418555256838916E-001  4.476371466296641E-001  4.534944193186367E-001  4.594283336438346E-001 
 4.654398924509023E-001  4.715301117075862E-001  4.777000206754359E-001  4.839506620837520E-001 
 4.902830923058097E-001  4.966983815373882E-001  5.031976139776367E-001  5.097818880123065E-001 
 5.164523163993806E-001  5.232100264571327E-001  5.300561602546474E-001  5.369918748048291E-001 
 5.440183422599455E-001  5.511367501097202E-001  5.583483013820220E-001  5.656542148461804E-001 
 5.730557252189598E-001  5.805540833732289E-001  5.881505565493631E-001  5.958464285694095E-001 
 6.036430000540561E-001  6.115415886424407E-001  6.195435292148338E-001  6.276501741182380E-001 
 6.358628933949363E-001  6.441830750140333E-001  6.526121251060260E-001  6.611514682004414E-001 
 6.698025474665884E-001  6.785668249574509E-001  6.874457818567858E-001  6.964409187294421E-001 
 7.055537557749605E-001  7.147858330844910E-001  7.241387109010722E-001  7.336139698833157E-001 
 7.432132113725419E-001  7.529380576634094E-001  7.627901522780873E-001  7.727711602440147E-001 
 7.828827683752932E-001  7.931266855577642E-001  8.035046430378124E-001  8.140183947149531E-001 
 8.246697174382429E-001  8.354604113065734E-001  8.463922999728929E-001  8.574672309524021E-001 
 8.686870759347970E-001  8.800537311005842E-001  8.915691174415403E-001  9.032351810853650E-001 
 9.150538936245801E-001  9.270272524497345E-001  9.391572810869675E-001  9.514460295399895E-001 
 9.638955746365372E-001  9.765080203793631E-001  9.892854983018169E-001  1.002230167828079E+000 
 1.015344216638108E+000  1.028629861037367E+000  1.042089346331380E+000  1.055724947205196E+000 
 1.069538968107820E+000  1.083533743641657E+000  1.097711638957086E+000  1.112075050152158E+000 
 1.126626404677552E+000  1.141368161746816E+000  1.156302812751982E+000  1.171432881684616E+000 
 1.186760925562378E+000  1.202289534861166E+000  1.218021333952911E+000  1.233958981549103E+000 
 1.250105171150118E+000  1.266462631500429E+000  1.283034127049766E+000  1.299822458420321E+000 
 1.316830462880052E+000  1.334061014822193E+000  1.351517026251036E+000  1.369201447274055E+000 
 1.387117266600494E+000  1.405267512046463E+000  1.423655251046639E+000  1.442283591172680E+000 
 1.461155680658404E+000  1.480274708931851E+000  1.499643907154304E+000  1.519266548766364E+000 
 1.539145950041166E+000  1.559285470644842E+000  1.579688514204308E+000  1.600358528882485E+000 
 1.621299007961051E+000  1.642513490430812E+000  1.664005561589796E+000  1.685778853649183E+000 
 1.707837046347156E+000  1.730183867570777E+000  1.752823093986022E+000  1.775758551676039E+000 
 1.798994116787767E+000  1.822533716187012E+000  1.846381328122099E+000  1.870540982896205E+000 
 1.895016763548488E+000  1.919812806544135E+000  1.944933302473428E+000  1.970382496759968E+000 
 1.996164690378161E+000  2.022284240580094E+000  2.048745561631917E+000  2.075553125559868E+000 
 2.102711462906055E+000  2.130225163494131E+000  2.158098877204984E+000  2.186337314762564E+000 
 2.214945248530033E+000  2.243927513316287E+000  2.273289007193057E+000  2.303034692322691E+000 
 2.333169595796772E+000  2.363698810485712E+000  2.394627495899456E+000  2.425960879059452E+000 
 2.457704255382031E+000  2.489862989573343E+000  2.522442516536008E+000  2.555448342287624E+000 
 2.588886044891302E+000  2.622761275398365E+000  2.657079758803396E+000  2.691847295011772E+000 
 2.727069759819867E+000  2.762753105908056E+000  2.798903363846764E+000  2.835526643115622E+000 
 2.872629133135995E+000  2.910217104317002E+000  2.948296909115238E+000  2.986874983108346E+000 
 3.025957846082650E+000  3.065552103135015E+000  3.105664445789121E+000  3.146301653126346E+000 
 3.187470592931452E+000  3.229178222853252E+000  3.271431591580471E+000  3.314237840032991E+000 
 3.357604202568683E+000  3.401538008206031E+000  3.446046681862762E+000  3.491137745610646E+000 
 3.536818819946785E+000  3.583097625081465E+000  3.629981982242902E+000  3.677479814999048E+000 
 3.725599150596685E+000  3.774348121318060E+000  3.823734965855252E+000  3.873768030702532E+000 
 3.924455771566943E+000  3.975806754797333E+000  4.027829658832090E+000  4.080533275665813E+000 
 4.133926512335186E+000  4.188018392424291E+000  4.242818057589603E+000  4.298334769104966E+000 
 4.354577909426768E+000  4.411556983779572E+000  4.469281621762566E+000  4.527761578976962E+000 
 4.587006738674716E+000  4.647027113428824E+000  4.707832846825476E+000  4.769434215178340E+000 
 4.831841629265284E+000  4.895065636087824E+000  4.959116920653592E+000  5.024006307782130E+000 
 5.089744763934303E+000  5.156343399065666E+000  5.223813468504067E+000  5.292166374851827E+000 
 5.361413669912805E+000  5.431567056644680E+000  5.502638391136795E+000  5.574639684613812E+000 
 5.647583105465712E+000  5.721480981304229E+000  5.796345801046265E+000  5.872190217024542E+000 
 5.949027047125877E+000  6.026869276957435E+000  6.105730062041332E+000  6.185622730037942E+000 
 6.266560782998307E+000  6.348557899646021E+000  6.431627937688957E+000  6.515784936161261E+000 
 6.601043117795972E+000  6.687416891428713E+000  6.774920854432804E+000  6.863569795186262E+000 
 6.953378695571078E+000  7.044362733505148E+000  7.136537285507444E+000  7.229917929296642E+000 
 7.324520446423793E+000  7.420360824939458E+000  7.517455262095713E+000  7.615820167083535E+000 
 7.715472163805981E+000  7.816428093687682E+000  7.918705018521070E+000  8.022320223349872E+000 
 8.127291219390321E+000  8.233635746990583E+000  8.341371778628938E+000  8.450517521951152E+000 
 8.561091422847625E+000  8.673112168570784E+000  8.786598690893294E+000  8.901570169307504E+000 
 9.018046034266927E+000  9.136045970469963E+000  9.255589920186679E+000  9.376698086629107E+000 
 9.499390937365625E+000  9.623689207780027E+000  9.749613904575854E+000  9.877186309326580E+000 
 1.000642798207224E+001  1.013736076496314E+001  1.027000678595121E+001  1.040438846252972E+001 
 1.054052850552185E+001  1.067844992291889E+001  1.081817602376865E+001  1.095973042211473E+001 
 1.110313704098738E+001  1.124842011644649E+001  1.139560420167760E+001  1.154471417114143E+001 
 1.169577522477772E+001  1.184881289226408E+001  1.200385303733055E+001  1.216092186213066E+001 
 1.232004591166965E+001  1.248125207829060E+001  1.264456760621937E+001  1.281002009616889E+001 
 1.297763751000375E+001  1.314744817546583E+001  1.331948079096177E+001  1.349376443041303E+001 
 1.367032854816949E+001  1.384920298398730E+001  1.403041796807187E+001  1.421400412618677E+001 
 1.439999248482970E+001  1.458841447647595E+001  1.477930194489055E+001  1.497268715051002E+001 
 1.516860277589436E+001  1.536708193125057E+001  1.556815816002830E+001  1.577186544458880E+001 
 1.597823821194800E+001  1.618731133959477E+001  1.639912016138530E+001  1.661370047351460E+001 
 1.683108854056613E+001  1.705132110164064E+001  1.727443537656513E+001  1.750046907218307E+001 
 1.772946038872706E+001  1.796144802627454E+001  1.819647119128845E+001  1.843456960324304E+001 
 1.867578350133665E+001  1.892015365129215E+001  1.916772135224651E+001  1.941852844373044E+001 
 1.967261731273933E+001  1.993003090089681E+001  2.019081271171193E+001  2.045500681793143E+001 
 2.072265786898806E+001  2.099381109854647E+001  2.126851233214784E+001  2.154680799495446E+001 
 2.182874511959571E+001  2.211437135411674E+001  2.240373497003091E+001  2.269688487047809E+001 
 2.299387059848915E+001  2.329474234535899E+001  2.359955095912894E+001  2.390834795318020E+001 
 2.422118551493972E+001  2.453811651470004E+001  2.485919451455443E+001  2.518447377744906E+001 
 2.551400927635358E+001  2.584785670355160E+001  2.618607248005292E+001  2.652871376512876E+001 
 2.687583846597181E+001  2.722750524748271E+001  2.758377354218453E+001  2.794470356026707E+001 
 2.831035629976235E+001  2.868079355685368E+001  2.905607793631917E+001  2.943627286211218E+001 
 2.982144258808006E+001  3.021165220882326E+001  3.060696767069639E+001  3.100745578295341E+001 
 3.141318422903851E+001  3.182422157802472E+001  3.224063729620235E+001  3.266250175881887E+001 
 3.308988626197254E+001  3.352286303466163E+001  3.396150525099122E+001  3.440588704253990E+001 
 3.485608351088810E+001  3.531217074031056E+001  3.577422581063446E+001  3.624232681026647E+001 
 3.671655284938966E+001  3.719698407333334E+001  3.768370167611783E+001  3.817678791417644E+001 
 3.867632612025701E+001  3.918240071750529E+001  3.969509723373273E+001  4.021450231587085E+001 
 4.074070374461476E+001  4.127379044925831E+001  4.181385252272341E+001  4.236098123678587E+001 
 4.291526905750057E+001  4.347680966082849E+001  4.404569794846809E+001  4.462203006389409E+001 
 4.520590340860556E+001  4.579741665858749E+001  4.639666978098703E+001  4.700376405100810E+001 
 4.761880206902730E+001  4.824188777793352E+001  4.887312648069458E+001  4.951262485815364E+001 
 5.016049098705857E+001  5.081683435832713E+001  5.148176589555122E+001  5.215539797374326E+001 
 5.283784443832774E+001  5.352922062438148E+001  5.422964337612547E+001  5.493923106667182E+001 
 5.565810361802912E+001  5.638638252136964E+001  5.712419085756122E+001  5.787165331796883E+001 
 5.862889622552730E+001  5.939604755609034E+001  6.017323696005869E+001  6.096059578429141E+001 
 6.175825709430380E+001  6.256635569675575E+001  6.338502816223444E+001  6.421441284833504E+001 
 6.505464992304351E+001  6.590588138842536E+001  6.676825110462421E+001  6.764190481417464E+001 
 6.852699016663294E+001  6.942365674353027E+001  7.033205608365229E+001  7.125234170864965E+001 
 7.218466914898312E+001  7.312919597020927E+001  7.408608179960895E+001  7.505548835316479E+001 
 7.603757946289164E+001  7.703252110452452E+001  7.804048142556893E+001  7.906163077371812E+001 
 8.009614172564243E+001  8.114418911615492E+001  8.220595006775908E+001  8.328160402058279E+001 
 8.437133276270426E+001  8.547532046087456E+001  8.659375369164228E+001  8.772682147288538E+001 
 8.887471529575573E+001  9.003762915704166E+001  9.121575959195323E+001  9.240930570733816E+001 
 9.361846921533072E+001  9.484345446744170E+001  9.608446848909426E+001  9.734172101461182E+001 
 9.861542452266355E+001  9.990579427217386E+001  1.012130483387016E+002  1.025374076512955E+002 