<PP_INFO>
Generated using Fritz-Haber code                                                
Author: unknown    Generation date: as well                                     
lithium, fhi98PP : Trouiller-Martins-type, LDA Ceperley/Alder Perdew/Wang (1992)
    1        The Pseudo was generated with a Scalar-Relativistic Calculation
nl pn  l   occ               Rcut            Rcut US             E pseu
s   0  0  0.80      0.00000000000      0.00000000000      0.00000000000
p   0  1  0.00      0.00000000000      0.00000000000      0.00000000000
d   0  2  0.00      0.00000000000      0.00000000000      0.00000000000
f   0  3  0.00      0.00000000000      0.00000000000      0.00000000000
</PP_INFO>


<PP_HEADER>
   0                   Version Number
  Li                   Element
   NC                  Norm - Conserving pseudopotential
    T                  Nonlinear Core Correction
SLA  PW   NOGX NOGC    PW   Exchange-Correlation functional
    1.00000000000      Z valence
    0.00000000000      Total energy
  0.0000000  0.0000000 Suggested cutoff for wfc and rho
    3                  Max angular momentum component
  433                  Number of points in mesh
    4    3             Number of Wavefunctions, Number of Projectors
 Wavefunctions         nl  l   occ
                       s   0  0.80
                       p   1  0.00
                       d   2  0.00
                       f   3  0.00
</PP_HEADER>


<PP_MESH>
  <PP_R>
  2.08333333333E-03  2.13479166667E-03  2.18752102083E-03  2.24155279005E-03
  2.29691914396E-03  2.35365304682E-03  2.41178827707E-03  2.47135944752E-03
  2.53240202587E-03  2.59495235591E-03  2.65904767910E-03  2.72472615678E-03
  2.79202689285E-03  2.86098995710E-03  2.93165640904E-03  3.00406832235E-03
  3.07826880991E-03  3.15430204951E-03  3.23221331013E-03  3.31204897889E-03
  3.39385658867E-03  3.47768484641E-03  3.56358366212E-03  3.65160417857E-03
  3.74179880179E-03  3.83422123219E-03  3.92892649662E-03  4.02597098109E-03
  4.12541246432E-03  4.22731015219E-03  4.33172471295E-03  4.43871831336E-03
  4.54835465570E-03  4.66069901570E-03  4.77581828139E-03  4.89378099294E-03
  5.01465738346E-03  5.13851942083E-03  5.26544085053E-03  5.39549723954E-03
  5.52876602135E-03  5.66532654208E-03  5.80526010767E-03  5.94865003233E-03
  6.09558168813E-03  6.24614255582E-03  6.40042227695E-03  6.55851270719E-03
  6.72050797106E-03  6.88650451795E-03  7.05660117954E-03  7.23089922867E-03
  7.40950243962E-03  7.59251714988E-03  7.78005232348E-03  7.97221961587E-03
  8.16913344038E-03  8.37091103636E-03  8.57767253896E-03  8.78954105067E-03
  9.00664271462E-03  9.22910678968E-03  9.45706572738E-03  9.69065525085E-03
  9.93001443554E-03  1.01752857921E-02  1.04266153512E-02  1.06841527503E-02
  1.09480513233E-02  1.12184681910E-02  1.14955643553E-02  1.17795047948E-02
  1.20704585633E-02  1.23685988898E-02  1.26741032824E-02  1.29871536334E-02
  1.33079363282E-02  1.36366423555E-02  1.39734674217E-02  1.43186120670E-02
  1.46722817851E-02  1.50346871451E-02  1.54060439176E-02  1.57865732024E-02
  1.61765015605E-02  1.65760611490E-02  1.69854898594E-02  1.74050314589E-02
  1.78349357360E-02  1.82754586487E-02  1.87268624773E-02  1.91894159805E-02
  1.96633945552E-02  2.01490804007E-02  2.06467626866E-02  2.11567377250E-02
  2.16793091468E-02  2.22147880827E-02  2.27634933483E-02  2.33257516340E-02
  2.39018976994E-02  2.44922745726E-02  2.50972337545E-02  2.57171354283E-02
  2.63523486733E-02  2.70032516856E-02  2.76702320022E-02  2.83536867326E-02
  2.90540227949E-02  2.97716571580E-02  3.05070170898E-02  3.12605404119E-02
  3.20326757601E-02  3.28238828513E-02  3.36346327578E-02  3.44654081869E-02
  3.53167037691E-02  3.61890263522E-02  3.70828953031E-02  3.79988428171E-02
  3.89374142347E-02  3.98991683663E-02  4.08846778249E-02  4.18945293672E-02
  4.29293242426E-02  4.39896785514E-02  4.50762236116E-02  4.61896063348E-02
  4.73304896112E-02  4.84995527046E-02  4.96974916564E-02  5.09250197004E-02
  5.21828676870E-02  5.34717845188E-02  5.47925375964E-02  5.61459132751E-02
  5.75327173330E-02  5.89537754511E-02  6.04099337047E-02  6.19020590672E-02
  6.34310399262E-02  6.49977866124E-02  6.66032319417E-02  6.82483317707E-02
  6.99340655654E-02  7.16614369849E-02  7.34314744784E-02  7.52452318980E-02
  7.71037891259E-02  7.90082527173E-02  8.09597565594E-02  8.29594625464E-02
  8.50085612713E-02  8.71082727347E-02  8.92598470713E-02  9.14645652939E-02
  9.37237400567E-02  9.60387164361E-02  9.84108727321E-02  1.00841621289E-01
  1.03332409334E-01  1.05884719845E-01  1.08500072425E-01  1.11180024214E-01
  1.13926170812E-01  1.16740147231E-01  1.19623628868E-01  1.22578332501E-01
  1.25606017314E-01  1.28708485941E-01  1.31887585544E-01  1.35145208907E-01
  1.38483295567E-01  1.41903832967E-01  1.45408857642E-01  1.49000456425E-01
  1.52680767699E-01  1.56451982661E-01  1.60316346633E-01  1.64276160395E-01
  1.68333781557E-01  1.72491625961E-01  1.76752169122E-01  1.81117947700E-01
  1.85591561008E-01  1.90175672565E-01  1.94873011677E-01  1.99686375066E-01
  2.04618628530E-01  2.09672708654E-01  2.14851624558E-01  2.20158459685E-01
  2.25596373639E-01  2.31168604068E-01  2.36878468588E-01  2.42729366762E-01
  2.48724782121E-01  2.54868284240E-01  2.61163530861E-01  2.67614270073E-01
  2.74224342544E-01  2.80997683804E-01  2.87938326594E-01  2.95050403261E-01
  3.02338148222E-01  3.09805900483E-01  3.17458106225E-01  3.25299321449E-01
  3.33334214688E-01  3.41567569791E-01  3.50004288765E-01  3.58649394697E-01
  3.67508034746E-01  3.76585483205E-01  3.85887144640E-01  3.95418557112E-01
  4.05185395473E-01  4.15193474741E-01  4.25448753567E-01  4.35957337781E-01
  4.46725484024E-01  4.57759603479E-01  4.69066265685E-01  4.80652202448E-01
  4.92524311848E-01  5.04689662351E-01  5.17155497011E-01  5.29929237787E-01
  5.43018489960E-01  5.56431046662E-01  5.70174893515E-01  5.84258213385E-01
  5.98689391255E-01  6.13477019219E-01  6.28629901594E-01  6.44157060163E-01
  6.60067739549E-01  6.76371412716E-01  6.93077786610E-01  7.10196807939E-01
  7.27738669096E-01  7.45713814222E-01  7.64132945434E-01  7.83007029186E-01
  8.02347302807E-01  8.22165281186E-01  8.42472763631E-01  8.63281840893E-01
  8.84604902363E-01  9.06454643451E-01  9.28844073145E-01  9.51786521751E-01
  9.75295648839E-01  9.99385451365E-01  1.02407027201E+00  1.04936480773E+00
  1.07528411848E+00  1.10184363621E+00  1.12905917402E+00  1.15694693562E+00
  1.18552352493E+00  1.21480595600E+00  1.24481166311E+00  1.27555851119E+00
  1.30706480642E+00  1.33934930714E+00  1.37243123502E+00  1.40633028653E+00
  1.44106664460E+00  1.47666099073E+00  1.51313451720E+00  1.55050893977E+00
  1.58880651058E+00  1.62805003139E+00  1.66826286717E+00  1.70946895999E+00
  1.75169284330E+00  1.79495965653E+00  1.83929516005E+00  1.88472575050E+00
  1.93127847654E+00  1.97898105491E+00  2.02786188696E+00  2.07795007557E+00
  2.12927544244E+00  2.18186854587E+00  2.23576069895E+00  2.29098398821E+00
  2.34757129272E+00  2.40555630365E+00  2.46497354435E+00  2.52585839090E+00
  2.58824709315E+00  2.65217679636E+00  2.71768556323E+00  2.78481239664E+00
  2.85359726283E+00  2.92408111523E+00  2.99630591877E+00  3.07031467497E+00
  3.14615144744E+00  3.22386138819E+00  3.30349076448E+00  3.38508698636E+00
  3.46869863492E+00  3.55437549121E+00  3.64216856584E+00  3.73213012941E+00
  3.82431374361E+00  3.91877429308E+00  4.01556801812E+00  4.11475254816E+00
  4.21638693610E+00  4.32053169343E+00  4.42724882625E+00  4.53660187226E+00
  4.64865593851E+00  4.76347774019E+00  4.88113564037E+00  5.00169969069E+00
  5.12524167305E+00  5.25183514237E+00  5.38155547039E+00  5.51447989051E+00
  5.65068754380E+00  5.79025952613E+00  5.93327893643E+00  6.07983092616E+00
  6.23000275004E+00  6.38388381796E+00  6.54156574827E+00  6.70314242225E+00
  6.86871004008E+00  7.03836717807E+00  7.21221484737E+00  7.39035655410E+00
  7.57289836098E+00  7.75994895050E+00  7.95161968958E+00  8.14802469591E+00
  8.34928090590E+00  8.55550814427E+00  8.76682919544E+00  8.98336987656E+00
  9.20525911251E+00  9.43262901259E+00  9.66561494920E+00  9.90435563845E+00
  1.01489932227E+01  1.03996733553E+01  1.06565452872E+01  1.09197619558E+01
  1.11894800761E+01  1.14658602340E+01  1.17490669818E+01  1.20392689362E+01
  1.23366388789E+01  1.26413538592E+01  1.29535952996E+01  1.32735491035E+01
  1.36014057663E+01  1.39373604887E+01  1.42816132928E+01  1.46343691412E+01
  1.49958380589E+01  1.53662352590E+01  1.57457812699E+01  1.61347020673E+01
  1.65332292083E+01  1.69415999698E+01  1.73600574890E+01  1.77888509090E+01
  1.82282355264E+01  1.86784729440E+01  1.91398312257E+01  1.96125850569E+01
  2.00970159078E+01  2.05934122008E+01  2.11020694821E+01  2.16232905983E+01
  2.21573858761E+01  2.27046733073E+01  2.32654787379E+01  2.38401360628E+01
  2.44289874235E+01  2.50323834129E+01  2.56506832832E+01  2.62842551603E+01
  2.69334762627E+01  2.75987331264E+01  2.82804218347E+01  2.89789482540E+01
  2.96947282758E+01  3.04281880643E+01  3.11797643094E+01  3.19499044879E+01
  3.27390671287E+01  3.35477220868E+01  3.43763508224E+01  3.52254466877E+01
  3.60955152209E+01  3.69870744468E+01  3.79006551856E+01  3.88368013687E+01
  3.97960703625E+01  4.07790333005E+01  4.17862754230E+01  4.28183964260E+01
  4.38760108177E+01  4.49597482849E+01  4.60702540675E+01  4.72081893430E+01
  4.83742316198E+01  4.95690751408E+01  5.07934312967E+01  5.20480290498E+01
  5.33336153673E+01  5.46509556669E+01  5.60008342718E+01  5.73840548784E+01
  5.88014410339E+01  6.02538366274E+01  6.17421063921E+01  6.32671364200E+01
  6.48298346895E+01  6.64311316064E+01  6.80719805571E+01  6.97533584768E+01
  7.14762664312E+01  7.32417302120E+01  7.50508009483E+01  7.69045557317E+01
  7.88040982583E+01
  </PP_R>
  <PP_RAB>
  5.08330975490E-05  5.20886750585E-05  5.33752653324E-05  5.46936343861E-05
  5.60445671555E-05  5.74288679642E-05  5.88473610029E-05  6.03008908197E-05
  6.17903228230E-05  6.33165437967E-05  6.48804624285E-05  6.64830098505E-05
  6.81251401938E-05  6.98078311565E-05  7.15320845861E-05  7.32989270754E-05
  7.51094105741E-05  7.69646130153E-05  7.88656389568E-05  8.08136202390E-05
  8.28097166589E-05  8.48551166604E-05  8.69510380419E-05  8.90987286816E-05
  9.12994672800E-05  9.35545641218E-05  9.58653618556E-05  9.82332362935E-05
  1.00659597230E-04  1.03145889281E-04  1.05693592747E-04  1.08304224488E-04
  1.10979338832E-04  1.13720528502E-04  1.16529425556E-04  1.19407702367E-04
  1.22357072615E-04  1.25379292309E-04  1.28476160829E-04  1.31649522001E-04
  1.34901265195E-04  1.38233326445E-04  1.41647689608E-04  1.45146387542E-04
  1.48731503314E-04  1.52405171446E-04  1.56169579180E-04  1.60026967786E-04
  1.63979633891E-04  1.68029930848E-04  1.72180270140E-04  1.76433122812E-04
  1.80791020945E-04  1.85256559163E-04  1.89832396174E-04  1.94521256360E-04
  1.99325931392E-04  2.04249281897E-04  2.09294239160E-04  2.14463806867E-04
  2.19761062897E-04  2.25189161150E-04  2.30751333431E-04  2.36450891367E-04
  2.42291228383E-04  2.48275821724E-04  2.54408234521E-04  2.60692117914E-04
  2.67131213226E-04  2.73729354193E-04  2.80490469241E-04  2.87418583832E-04
  2.94517822852E-04  3.01792413077E-04  3.09246685680E-04  3.16885078816E-04
  3.24712140263E-04  3.32732530127E-04  3.40951023621E-04  3.49372513905E-04
  3.58002014998E-04  3.66844664769E-04  3.75905727989E-04  3.85190599470E-04
  3.94704807277E-04  4.04454016017E-04  4.14444030212E-04  4.24680797758E-04
  4.35170413463E-04  4.45919122676E-04  4.56933325006E-04  4.68219578133E-04
  4.79784601713E-04  4.91635281375E-04  5.03778672825E-04  5.16222006044E-04
  5.28972689593E-04  5.42038315026E-04  5.55426661408E-04  5.69145699944E-04
  5.83203598733E-04  5.97608727622E-04  6.12369663194E-04  6.27495193875E-04
  6.42994325164E-04  6.58876284995E-04  6.75150529234E-04  6.91826747307E-04
  7.08914867965E-04  7.26425065204E-04  7.44367764314E-04  7.62753648093E-04
  7.81593663201E-04  8.00899026682E-04  8.20681232641E-04  8.40952059087E-04
  8.61723574947E-04  8.83008147248E-04  9.04818448485E-04  9.27167464162E-04
  9.50068500527E-04  9.73535192490E-04  9.97581511745E-04  1.02222177508E-03
  1.04747065293E-03  1.07334317806E-03  1.09985475455E-03  1.12702116699E-03
  1.15485858982E-03  1.18338359699E-03  1.21261317183E-03  1.24256471718E-03
  1.27325606569E-03  1.30470549051E-03  1.33693171613E-03  1.36995392952E-03
  1.40379179157E-03  1.43846544883E-03  1.47399554541E-03  1.51040323538E-03
  1.54771019530E-03  1.58593863712E-03  1.62511132146E-03  1.66525157110E-03
  1.70638328491E-03  1.74853095204E-03  1.79171966656E-03  1.83597514232E-03
  1.88132372834E-03  1.92779242443E-03  1.97540889731E-03  2.02420149707E-03
  2.07419927405E-03  2.12543199612E-03  2.17793016643E-03  2.23172504154E-03
  2.28684865006E-03  2.34333381172E-03  2.40121415687E-03  2.46052414654E-03
  2.52129909296E-03  2.58357518056E-03  2.64738948752E-03  2.71278000786E-03
  2.77978567405E-03  2.84844638020E-03  2.91880300579E-03  2.99089744004E-03
  3.06477260681E-03  3.14047249019E-03  3.21804216070E-03  3.29752780207E-03
  3.37897673878E-03  3.46243746423E-03  3.54795966960E-03  3.63559427344E-03
  3.72539345199E-03  3.81741067025E-03  3.91170071381E-03  4.00831972144E-03
  4.10732521856E-03  4.20877615146E-03  4.31273292240E-03  4.41925742558E-03
  4.52841308399E-03  4.64026488717E-03  4.75487942988E-03  4.87232495180E-03
  4.99267137811E-03  5.11599036115E-03  5.24235532307E-03  5.37184149955E-03
  5.50452598459E-03  5.64048777641E-03  5.77980782449E-03  5.92256907775E-03
  6.06885653397E-03  6.21875729036E-03  6.37236059543E-03  6.52975790214E-03
  6.69104292232E-03  6.85631168250E-03  7.02566258106E-03  7.19919644681E-03
  7.37701659905E-03  7.55922890905E-03  7.74594186310E-03  7.93726662712E-03
  8.13331711281E-03  8.33421004549E-03  8.54006503362E-03  8.75100463995E-03
  8.96715445455E-03  9.18864316958E-03  9.41560265587E-03  9.64816804147E-03
  9.88647779209E-03  1.01306737936E-02  1.03809014363E-02  1.06373097017E-02
  1.09000512514E-02  1.11692825173E-02  1.14451637955E-02  1.17278593412E-02
  1.20175374669E-02  1.23143706424E-02  1.26185355972E-02  1.29302134265E-02
  1.32495896981E-02  1.35768545637E-02  1.39122028714E-02  1.42558342823E-02
  1.46079533891E-02  1.49687698378E-02  1.53384984528E-02  1.57173593646E-02
  1.61055781409E-02  1.65033859209E-02  1.69110195532E-02  1.73287217362E-02
  1.77567411630E-02  1.81953326698E-02  1.86447573867E-02  1.91052828942E-02
  1.95771833817E-02  2.00607398112E-02  2.05562400845E-02  2.10639792146E-02
  2.15842595012E-02  2.21173907109E-02  2.26636902614E-02  2.32234834109E-02
  2.37971034511E-02  2.43848919064E-02  2.49871987365E-02  2.56043825453E-02
  2.62368107941E-02  2.68848600208E-02  2.75489160633E-02  2.82293742900E-02
  2.89266398350E-02  2.96411278389E-02  3.03732636965E-02  3.11234833098E-02
  3.18922333476E-02  3.26799715113E-02  3.34871668076E-02  3.43142998278E-02
  3.51618630335E-02  3.60303610504E-02  3.69203109684E-02  3.78322426493E-02
  3.87666990427E-02  3.97242365091E-02  4.07054251509E-02  4.17108491521E-02
  4.27411071261E-02  4.37968124722E-02  4.48785937402E-02  4.59870950056E-02
  4.71229762522E-02  4.82869137657E-02  4.94796005357E-02  5.07017466689E-02
  5.19540798116E-02  5.32373455830E-02  5.45523080189E-02  5.58997500270E-02
  5.72804738526E-02  5.86953015568E-02  6.01450755052E-02  6.16306588702E-02
  6.31529361443E-02  6.47128136671E-02  6.63112201646E-02  6.79491073027E-02
  6.96274502531E-02  7.13472482743E-02  7.31095253067E-02  7.49153305818E-02
  7.67657392472E-02  7.86618530066E-02  8.06048007758E-02  8.25957393550E-02
  8.46358541171E-02  8.67263597138E-02  8.88685007987E-02  9.10635527684E-02
  9.33128225218E-02  9.56176492381E-02  9.79794051743E-02  1.00399496482E-01
  1.02879364045E-01  1.05420484337E-01  1.08024370300E-01  1.10692572247E-01
  1.13426678781E-01  1.16228317747E-01  1.19099157195E-01  1.22040906378E-01
  1.25055316766E-01  1.28144183090E-01  1.31309344412E-01  1.34552685219E-01
  1.37876136544E-01  1.41281677117E-01  1.44771334541E-01  1.48347186505E-01
  1.52011362011E-01  1.55766042653E-01  1.59613463906E-01  1.63555916465E-01
  1.67595747602E-01  1.71735362567E-01  1.75977226023E-01  1.80323863506E-01
  1.84777862934E-01  1.89341876149E-01  1.94018620489E-01  1.98810880416E-01
  2.03721509162E-01  2.08753430438E-01  2.13909640170E-01  2.19193208282E-01
  2.24607280527E-01  2.30155080356E-01  2.35839910840E-01  2.41665156638E-01
  2.47634286007E-01  2.53750852872E-01  2.60018498937E-01  2.66440955861E-01
  2.73022047471E-01  2.79765692044E-01  2.86675904637E-01  2.93756799482E-01
  3.01012592429E-01  3.08447603462E-01  3.16066259267E-01  3.23873095871E-01
  3.31872761339E-01  3.40070018544E-01  3.48469748002E-01  3.57076950778E-01
  3.65896751462E-01  3.74934401223E-01  3.84195280933E-01  3.93684904373E-01
  4.03408921511E-01  4.13373121872E-01  4.23583437982E-01  4.34045948900E-01
  4.44766883838E-01  4.55752625869E-01  4.67009715728E-01  4.78544855706E-01
  4.90364913642E-01  5.02476927009E-01  5.14888107106E-01  5.27605843352E-01
  5.40637707683E-01  5.53991459062E-01  5.67675048101E-01  5.81696621789E-01
  5.96064528348E-01  6.10787322198E-01  6.25873769056E-01  6.41332851152E-01
  6.57173772575E-01  6.73405964758E-01  6.90039092087E-01  7.07083057662E-01
  7.24548009186E-01  7.42444345013E-01  7.60782720335E-01  7.79574053527E-01
  7.98829532649E-01  8.18560622106E-01  8.38779069472E-01  8.59496912488E-01
  8.80726486226E-01  9.02480430436E-01  9.24771697068E-01  9.47613557985E-01
  9.71019612867E-01  9.95003797305E-01  1.01958039110E+00  1.04476402676E+00
  1.07056969822E+00  1.09701276977E+00  1.12410898518E+00  1.15187447711E+00
  1.18032577670E+00  1.20947982338E+00  1.23935397502E+00  1.26996601820E+00
  1.30133417885E+00  1.33347713307E+00  1.36641401826E+00  1.40016444451E+00
  1.43474850629E+00  1.47018679439E+00  1.50650040821E+00  1.54371096830E+00
  1.58184062921E+00  1.62091209276E+00  1.66094862145E+00  1.70197405240E+00
  1.74401281149E+00  1.78708992793E+00  1.83123104915E+00  1.87646245607E+00
  1.92281107873E+00
  </PP_RAB>
</PP_MESH>


<PP_NLCC>
  5.57967860369E-02  5.57967859738E-02  5.57967859060E-02  5.57967858330E-02
  5.57967857545E-02  5.57967856700E-02  5.57967855792E-02  5.57967854814E-02
  5.57967853762E-02  5.57967852630E-02  5.57967851413E-02  5.57967850103E-02
  5.57967848694E-02  5.57967847177E-02  5.57967845546E-02  5.57967843791E-02
  5.57967841903E-02  5.57967839872E-02  5.57967837687E-02  5.57967835336E-02
  5.57967832807E-02  5.57967830086E-02  5.57967827158E-02  5.57967824009E-02
  5.57967820620E-02  5.57967816975E-02  5.57967813054E-02  5.57967808835E-02
  5.57967804296E-02  5.57967799414E-02  5.57967794161E-02  5.57967788510E-02
  5.57967782430E-02  5.57967775890E-02  5.57967768854E-02  5.57967761285E-02
  5.57967753142E-02  5.57967744382E-02  5.57967734958E-02  5.57967724820E-02
  5.57967713914E-02  5.57967702182E-02  5.57967689560E-02  5.57967675983E-02
  5.57967661377E-02  5.57967645665E-02  5.57967628763E-02  5.57967610581E-02
  5.57967591021E-02  5.57967569981E-02  5.57967547347E-02  5.57967523000E-02
  5.57967496809E-02  5.57967468635E-02  5.57967438329E-02  5.57967405729E-02
  5.57967370661E-02  5.57967332940E-02  5.57967292364E-02  5.57967248718E-02
  5.57967201770E-02  5.57967151269E-02  5.57967096949E-02  5.57967038521E-02
  5.57966975673E-02  5.57966908073E-02  5.57966835361E-02  5.57966757152E-02
  5.57966673030E-02  5.57966582550E-02  5.57966485231E-02  5.57966380558E-02
  5.57966267976E-02  5.57966146888E-02  5.57966016653E-02  5.57965876581E-02
  5.57965725930E-02  5.57965563904E-02  5.57965389644E-02  5.57965202231E-02
  5.57965000671E-02  5.57964783901E-02  5.57964550774E-02  5.57964300060E-02
  5.57964030434E-02  5.57963740475E-02  5.57963428651E-02  5.57963093319E-02
  5.57962732712E-02  5.57962344928E-02  5.57961927925E-02  5.57961479509E-02
  5.57960997319E-02  5.57960478820E-02  5.57959921285E-02  5.57959321785E-02
  5.57958677172E-02  5.57957984061E-02  5.57957238816E-02  5.57956437530E-02
  5.57955576002E-02  5.57954649721E-02  5.57953653838E-02  5.57952583142E-02
  5.57951432037E-02  5.57950194506E-02  5.57948864088E-02  5.57947433842E-02
  5.57945896307E-02  5.57944243473E-02  5.57942466732E-02  5.57940556840E-02
  5.57938503866E-02  5.57936297143E-02  5.57933925216E-02  5.57931375780E-02
  5.57928635624E-02  5.57925690556E-02  5.57922525341E-02  5.57919123616E-02
  5.57915467814E-02  5.57911539072E-02  5.57907317141E-02  5.57902780281E-02
  5.57897905155E-02  5.57892666711E-02  5.57887038062E-02  5.57880990347E-02
  5.57874492595E-02  5.57867511567E-02  5.57860011595E-02  5.57851954410E-02
  5.57843298947E-02  5.57834001153E-02  5.57824013768E-02  5.57813286097E-02
  5.57801763764E-02  5.57789388450E-02  5.57776097612E-02  5.57761824183E-02
  5.57746496252E-02  5.57730036718E-02  5.57712362927E-02  5.57693386280E-02
  5.57673011811E-02  5.57651137745E-02  5.57627655017E-02  5.57602446765E-02
  5.57575387785E-02  5.57546343952E-02  5.57515171601E-02  5.57481716865E-02
  5.57445814974E-02  5.57407289503E-02  5.57365951571E-02  5.57321598995E-02
  5.57274015374E-02  5.57222969131E-02  5.57168212481E-02  5.57109480338E-02
  5.57046489150E-02  5.56978935665E-02  5.56906495613E-02  5.56828822309E-02
  5.56745545173E-02  5.56656268150E-02  5.56560568043E-02  5.56457992737E-02
  5.56348059323E-02  5.56230252104E-02  5.56104020491E-02  5.55968776765E-02
  5.55823893722E-02  5.55668702174E-02  5.55502488314E-02  5.55324490930E-02
  5.55133898469E-02  5.54929845940E-02  5.54711411647E-02  5.54477613760E-02
  5.54227406697E-02  5.53959677330E-02  5.53673240996E-02  5.53366837317E-02
  5.53039125820E-02  5.52688681351E-02  5.52313989280E-02  5.51913440504E-02
  5.51485326221E-02  5.51027832508E-02  5.50539034669E-02  5.50016891382E-02
  5.49459238627E-02  5.48863783412E-02  5.48228097308E-02  5.47549609779E-02
  5.46825601351E-02  5.46053196605E-02  5.45229357035E-02  5.44350873780E-02
  5.43414360256E-02  5.42416244725E-02  5.41352762836E-02  5.40219950173E-02
  5.39013634865E-02  5.37729430308E-02  5.36362728063E-02  5.34908691005E-02
  5.33362246795E-02  5.31718081768E-02  5.29970635341E-02  5.28114095051E-02
  5.26142392344E-02  5.24049199259E-02  5.21827926159E-02  5.19471720678E-02
  5.16973468066E-02  5.14325793146E-02  5.11521064087E-02  5.08551398259E-02
  5.05408670411E-02  5.02084523476E-02  4.98570382296E-02  4.94857470606E-02
  4.90936831626E-02  4.86799352651E-02  4.82435794024E-02  4.77836822931E-02
  4.72993052463E-02  4.67895086411E-02  4.62533570286E-02  4.56899249068E-02
  4.50983032197E-02  4.44776066338E-02  4.38269816437E-02  4.31456155598E-02
  4.24327464279E-02  4.16876739283E-02  4.09097712997E-02  4.00984983240E-02
  3.92534154052E-02  3.83741987607E-02  3.74606567369E-02  3.65127472386E-02
  3.55305962502E-02  3.45145173966E-02  3.34650324685E-02  3.23828928023E-02
  3.12691013635E-02  3.01249353380E-02  2.89519689797E-02  2.77520963994E-02
  2.65275539042E-02  2.52809414138E-02  2.40152423770E-02  2.27338415006E-02
  2.14405394745E-02  2.01395637234E-02  1.88355740558E-02  1.75336618836E-02
  1.62393414783E-02  1.49585314879E-02  1.36975246713E-02  1.24629435104E-02
  1.12616790324E-02  1.01008098081E-02  8.98749769811E-03  7.92885648317E-03
  6.93178904316E-03  6.00278824572E-03  5.14769616288E-03  4.37141566344E-03
  3.67756783114E-03  3.06808804229E-03  2.54275291235E-03  2.09761926924E-03
  1.72303347304E-03  1.40917458046E-03  1.14735663404E-03  9.29933834080E-04
  7.50208425285E-04  6.02341963365E-04  4.81270527051E-04  3.82624339163E-04
  3.02652158930E-04  2.38150708119E-04  1.86399297160E-04  1.45099725900E-04
  1.12321448619E-04  8.64519158541E-05  6.61519380780E-05  5.03158592581E-05
  3.80362824960E-05  2.85730553972E-05  2.13261991112E-05  1.58124513232E-05
  1.16450887449E-05  8.51669757898E-06  6.18456968281E-06  4.45841643308E-06
  3.19011035850E-06  2.26518535273E-06  1.59584871616E-06  1.11528155231E-06
  7.73027446080E-07  5.31292289740E-07  3.62000131934E-07  2.44470652018E-07
  1.63603053957E-07  1.08468669610E-07  7.12302772625E-08  4.63200616924E-08
  2.98203050299E-08  1.90013847472E-08  1.19805793897E-08  7.47267918566E-09
  4.60961502923E-09  2.81140804932E-09  1.69485406581E-09  1.00963720216E-09
  5.94149109968E-10  3.45296413148E-10  1.98116903447E-10  1.12188153228E-10
  6.26799085097E-11  3.45399826761E-11  1.87664159854E-11  1.00497558240E-11
  5.30261911273E-12  2.75567573597E-12  1.40995947078E-12  7.10002716887E-13
  3.51737032197E-13  1.71358791373E-13  8.20627243528E-14  3.86147410308E-14
  1.78459475744E-14  8.09677543609E-15  3.60472541596E-15  1.57404182379E-15
  6.73806657840E-16  2.82627670270E-16  1.16100497820E-16  4.66839174961E-17
  1.83646245565E-17  7.06382500067E-18  2.65519367119E-18  9.74765157458E-19
  3.49296562382E-19  1.22101022667E-19  4.16110470720E-20  1.38181386307E-20
  0.00000000000E+00  0.00000000000E+00  0.00000000000E+00  0.00000000000E+00
  0.00000000000E+00  0.00000000000E+00  0.00000000000E+00  0.00000000000E+00
  0.00000000000E+00  0.00000000000E+00  0.00000000000E+00  0.00000000000E+00
  0.00000000000E+00  0.00000000000E+00  0.00000000000E+00  0.00000000000E+00
  0.00000000000E+00  0.00000000000E+00  0.00000000000E+00  0.00000000000E+00
  0.00000000000E+00  0.00000000000E+00  0.00000000000E+00  0.00000000000E+00
  0.00000000000E+00  0.00000000000E+00  0.00000000000E+00  0.00000000000E+00
  0.00000000000E+00  0.00000000000E+00  0.00000000000E+00  0.00000000000E+00
  0.00000000000E+00  0.00000000000E+00  0.00000000000E+00  0.00000000000E+00
  0.00000000000E+00  0.00000000000E+00  0.00000000000E+00  0.00000000000E+00
  0.00000000000E+00  0.00000000000E+00  0.00000000000E+00  0.00000000000E+00
  0.00000000000E+00  0.00000000000E+00  0.00000000000E+00  0.00000000000E+00
  0.00000000000E+00  0.00000000000E+00  0.00000000000E+00  0.00000000000E+00
  0.00000000000E+00  0.00000000000E+00  0.00000000000E+00  0.00000000000E+00
  0.00000000000E+00  0.00000000000E+00  0.00000000000E+00  0.00000000000E+00
  0.00000000000E+00  0.00000000000E+00  0.00000000000E+00  0.00000000000E+00
  0.00000000000E+00  0.00000000000E+00  0.00000000000E+00  0.00000000000E+00
  0.00000000000E+00  0.00000000000E+00  0.00000000000E+00  0.00000000000E+00
  0.00000000000E+00  0.00000000000E+00  0.00000000000E+00  0.00000000000E+00
  0.00000000000E+00  0.00000000000E+00  0.00000000000E+00  0.00000000000E+00
  0.00000000000E+00
</PP_NLCC>


<PP_LOCAL>
 -2.08705470776E+00 -2.08705479554E+00 -2.08705488109E+00 -2.08705496446E+00
 -2.08705504570E+00 -2.08705512486E+00 -2.08705520199E+00 -2.08705527712E+00
 -2.08705535030E+00 -2.08705542156E+00 -2.08705549096E+00 -2.08705555853E+00
 -2.08705562430E+00 -2.08705568831E+00 -2.08705575061E+00 -2.08705581121E+00
 -2.08705587016E+00 -2.08705592749E+00 -2.08705598323E+00 -2.08705603741E+00
 -2.08705609006E+00 -2.08705614121E+00 -2.08705619088E+00 -2.08705623910E+00
 -2.08705628591E+00 -2.08705633131E+00 -2.08705637535E+00 -2.08705641803E+00
 -2.08705645939E+00 -2.08705649944E+00 -2.08705653821E+00 -2.08705657573E+00
 -2.08705661199E+00 -2.08705664704E+00 -2.08705668089E+00 -2.08705671355E+00
 -2.08705674505E+00 -2.08705677540E+00 -2.08705680463E+00 -2.08705683274E+00
 -2.08705685976E+00 -2.08705688571E+00 -2.08705691060E+00 -2.08705693445E+00
 -2.08705695728E+00 -2.08705697911E+00 -2.08705699995E+00 -2.08705701983E+00
 -2.08705703876E+00 -2.08705705677E+00 -2.08705707388E+00 -2.08705709011E+00
 -2.08705710548E+00 -2.08705712003E+00 -2.08705713378E+00 -2.08705714676E+00
 -2.08705715900E+00 -2.08705717054E+00 -2.08705718142E+00 -2.08705719167E+00
 -2.08705720134E+00 -2.08705721048E+00 -2.08705721914E+00 -2.08705722737E+00
 -2.08705723525E+00 -2.08705724284E+00 -2.08705725021E+00 -2.08705725745E+00
 -2.08705726465E+00 -2.08705727189E+00 -2.08705727930E+00 -2.08705728698E+00
 -2.08705729507E+00 -2.08705730371E+00 -2.08705731304E+00 -2.08705732323E+00
 -2.08705733447E+00 -2.08705734695E+00 -2.08705736089E+00 -2.08705737653E+00
 -2.08705739412E+00 -2.08705741395E+00 -2.08705743631E+00 -2.08705746155E+00
 -2.08705749003E+00 -2.08705752213E+00 -2.08705755829E+00 -2.08705759898E+00
 -2.08705764469E+00 -2.08705769598E+00 -2.08705775345E+00 -2.08705781774E+00
 -2.08705788955E+00 -2.08705796966E+00 -2.08705805887E+00 -2.08705815809E+00
 -2.08705826828E+00 -2.08705839049E+00 -2.08705852587E+00 -2.08705867563E+00
 -2.08705884112E+00 -2.08705902375E+00 -2.08705922510E+00 -2.08705944683E+00
 -2.08705969075E+00 -2.08705995884E+00 -2.08706025320E+00 -2.08706057611E+00
 -2.08706093004E+00 -2.08706131764E+00 -2.08706174178E+00 -2.08706220553E+00
 -2.08706271223E+00 -2.08706326546E+00 -2.08706386907E+00 -2.08706452723E+00
 -2.08706524440E+00 -2.08706602539E+00 -2.08706687539E+00 -2.08706779995E+00
 -2.08706880507E+00 -2.08706989718E+00 -2.08707108317E+00 -2.08707237049E+00
 -2.08707376710E+00 -2.08707528156E+00 -2.08707692306E+00 -2.08707870144E+00
 -2.08708062727E+00 -2.08708271188E+00 -2.08708496742E+00 -2.08708740689E+00
 -2.08709004424E+00 -2.08709289438E+00 -2.08709597328E+00 -2.08709929804E+00
 -2.08710288693E+00 -2.08710675949E+00 -2.08711093662E+00 -2.08711544063E+00
 -2.08712029534E+00 -2.08712552621E+00 -2.08713116037E+00 -2.08713722678E+00
 -2.08714375630E+00 -2.08715078182E+00 -2.08715833837E+00 -2.08716646324E+00
 -2.08717519610E+00 -2.08718457914E+00 -2.08719465719E+00 -2.08720547787E+00
 -2.08721709173E+00 -2.08722955238E+00 -2.08724291668E+00 -2.08725724483E+00
 -2.08727260056E+00 -2.08728905130E+00 -2.08730666828E+00 -2.08732552672E+00
 -2.08734570599E+00 -2.08736728970E+00 -2.08739036593E+00 -2.08741502725E+00
 -2.08744137092E+00 -2.08746949899E+00 -2.08749951836E+00 -2.08753154086E+00
 -2.08756568332E+00 -2.08760206755E+00 -2.08764082037E+00 -2.08768207350E+00
 -2.08772596351E+00 -2.08777263163E+00 -2.08782222355E+00 -2.08787488911E+00