<PP_INFO>
Generated using Fritz-Haber code                                                
Author: unknown    Generation date: as well                                     
fluorine, fhi98PP : Trouiller-Martins-type, LDA Ceperley/Alder Perdew/Wang (1992
    1        The Pseudo was generated with a Scalar-Relativistic Calculation
nl pn  l   occ               Rcut            Rcut US             E pseu
s   0  0  2.00      0.00000000000      0.00000000000      0.00000000000
p   0  1  4.50      0.00000000000      0.00000000000      0.00000000000
d   0  2  0.00      0.00000000000      0.00000000000      0.00000000000
f   0  3  0.00      0.00000000000      0.00000000000      0.00000000000
</PP_INFO>


<PP_HEADER>
   0                   Version Number
   F                   Element
   NC                  Norm - Conserving pseudopotential
    F                  Nonlinear Core Correction
SLA  PW   NOGX NOGC    PW   Exchange-Correlation functional
    7.00000000000      Z valence
    0.00000000000      Total energy
  0.0000000  0.0000000 Suggested cutoff for wfc and rho
    3                  Max angular momentum component
  477                  Number of points in mesh
    4    3             Number of Wavefunctions, Number of Projectors
 Wavefunctions         nl  l   occ
                       s   0  2.00
                       p   1  4.50
                       d   2  0.00
                       f   3  0.00
</PP_HEADER>


<PP_MESH>
  <PP_R>
  6.94444444444E-04  7.11597222222E-04  7.29173673611E-04  7.47184263349E-04
  7.65639714654E-04  7.84551015606E-04  8.03929425691E-04  8.23786482506E-04
  8.44134008624E-04  8.64984118637E-04  8.86349226367E-04  9.08242052259E-04
  9.30675630949E-04  9.53663319034E-04  9.77218803014E-04  1.00135610745E-03
  1.02608960330E-03  1.05143401650E-03  1.07740443671E-03  1.10401632630E-03
  1.13128552956E-03  1.15922828214E-03  1.18786122071E-03  1.21720139286E-03
  1.24726626726E-03  1.27807374406E-03  1.30964216554E-03  1.34199032703E-03
  1.37513748811E-03  1.40910338406E-03  1.44390823765E-03  1.47957277112E-03
  1.51611821857E-03  1.55356633857E-03  1.59193942713E-03  1.63126033098E-03
  1.67155246115E-03  1.71283980694E-03  1.75514695018E-03  1.79849907985E-03
  1.84292200712E-03  1.88844218069E-03  1.93508670256E-03  1.98288334411E-03
  2.03186056271E-03  2.08204751861E-03  2.13347409232E-03  2.18617090240E-03
  2.24016932369E-03  2.29550150598E-03  2.35220039318E-03  2.41029974289E-03
  2.46983414654E-03  2.53083904996E-03  2.59335077449E-03  2.65740653862E-03
  2.72304448013E-03  2.79030367879E-03  2.85922417965E-03  2.92984701689E-03
  3.00221423821E-03  3.07636892989E-03  3.15235524246E-03  3.23021841695E-03
  3.31000481185E-03  3.39176193070E-03  3.47553845039E-03  3.56138425011E-03
  3.64935044109E-03  3.73948939699E-03  3.83185478509E-03  3.92650159828E-03
  4.02348618776E-03  4.12286629660E-03  4.22470109412E-03  4.32905121115E-03
  4.43597877606E-03  4.54554745183E-03  4.65782247389E-03  4.77287068900E-03
  4.89076059502E-03  5.01156238171E-03  5.13534797254E-03  5.26219106746E-03
  5.39216718683E-03  5.52535371635E-03  5.66182995314E-03  5.80167715298E-03
  5.94497857866E-03  6.09181954955E-03  6.24228749243E-03  6.39647199349E-03
  6.55446485173E-03  6.71636013357E-03  6.88225422887E-03  7.05224590832E-03
  7.22643638225E-03  7.40492936090E-03  7.58783111611E-03  7.77525054468E-03
  7.96729923313E-03  8.16409152419E-03  8.36574458484E-03  8.57237847608E-03
  8.78411622444E-03  9.00108389519E-03  9.22341066740E-03  9.45122891088E-03
  9.68467426498E-03  9.92388571933E-03  1.01690056966E-02  1.04201801373E-02
  1.06775585867E-02  1.09412942838E-02  1.12115442526E-02  1.14884693956E-02
  1.17722345897E-02  1.20630087841E-02  1.23609651010E-02  1.26662809390E-02
  1.29791380782E-02  1.32997227888E-02  1.36282259416E-02  1.39648431224E-02
  1.43097747475E-02  1.46632261838E-02  1.50254078705E-02  1.53965354449E-02
  1.57768298704E-02  1.61665175682E-02  1.65658305521E-02  1.69750065668E-02
  1.73942892290E-02  1.78239281729E-02  1.82641791988E-02  1.87153044250E-02
  1.91775724443E-02  1.96512584837E-02  2.01366445682E-02  2.06340196891E-02
  2.11436799754E-02  2.16659288708E-02  2.22010773139E-02  2.27494439236E-02
  2.33113551885E-02  2.38871456616E-02  2.44771581595E-02  2.50817439660E-02
  2.57012630420E-02  2.63360842391E-02  2.69865855198E-02  2.76531541821E-02
  2.83361870904E-02  2.90360909116E-02  2.97532823571E-02  3.04881884313E-02
  3.12412466856E-02  3.20129054787E-02  3.28036242440E-02  3.36138737629E-02
  3.44441364448E-02  3.52949066150E-02  3.61666908084E-02  3.70600080713E-02
  3.79753902707E-02  3.89133824104E-02  3.98745429559E-02  4.08594441669E-02
  4.18686724379E-02  4.29028286471E-02  4.39625285147E-02  4.50484029690E-02
  4.61610985223E-02  4.73012776558E-02  4.84696192139E-02  4.96668188085E-02
  5.08935892331E-02  5.21506608871E-02  5.34387822110E-02  5.47587201316E-02
  5.61112605189E-02  5.74972086537E-02  5.89173897074E-02  6.03726492332E-02
  6.18638536693E-02  6.33918908549E-02  6.49576705590E-02  6.65621250218E-02
  6.82062095099E-02  6.98909028848E-02  7.16172081860E-02  7.33861532282E-02
  7.51987912130E-02  7.70562013559E-02  7.89594895294E-02  8.09097889208E-02
  8.29082607071E-02  8.49560947466E-02  8.70545102868E-02  8.92047566909E-02
  9.14081141812E-02  9.36658946015E-02  9.59794421981E-02  9.83501344204E-02
  1.00779382741E-01  1.03268633494E-01  1.05819368742E-01  1.08433107150E-01
  1.11111404896E-01  1.13855856597E-01  1.16668096255E-01  1.19549798232E-01
  1.22502678249E-01  1.25528494402E-01  1.28629048213E-01  1.31806185704E-01
  1.35061798491E-01  1.38397824914E-01  1.41816251189E-01  1.45319112594E-01
  1.48908494675E-01  1.52586534493E-01  1.56355421895E-01  1.60217400816E-01
  1.64174770616E-01  1.68229887450E-01  1.72385165670E-01  1.76643079262E-01
  1.81006163320E-01  1.85477015554E-01  1.90058297838E-01  1.94752737795E-01
  1.99563130418E-01  2.04492339740E-01  2.09543300531E-01  2.14719020054E-01
  2.20022579850E-01  2.25457137572E-01  2.31025928870E-01  2.36732269313E-01
  2.42579556365E-01  2.48571271407E-01  2.54710981811E-01  2.61002343062E-01
  2.67449100936E-01  2.74055093729E-01  2.80824254544E-01  2.87760613631E-01
  2.94868300788E-01  3.02151547817E-01  3.09614691048E-01  3.17262173917E-01
  3.25098549613E-01  3.33128483788E-01  3.41356757338E-01  3.49788269244E-01
  3.58428039494E-01  3.67281212070E-01  3.76353058008E-01  3.85648978541E-01
  3.95174508311E-01  4.04935318666E-01  4.14937221037E-01  4.25186170397E-01
  4.35688268806E-01  4.46449769045E-01  4.57477078340E-01  4.68776762176E-01
  4.80355548201E-01  4.92220330242E-01  5.04378172399E-01  5.16836313257E-01
  5.29602170194E-01  5.42683343798E-01  5.56087622390E-01  5.69822986663E-01
  5.83897614434E-01  5.98319885510E-01  6.13098386682E-01  6.28241916833E-01
  6.43759492179E-01  6.59660351636E-01  6.75953962321E-01  6.92650025191E-01
  7.09758480813E-01  7.27289515289E-01  7.45253566317E-01  7.63661329405E-01
  7.82523764241E-01  8.01852101218E-01  8.21657848118E-01  8.41952796966E-01
  8.62749031051E-01  8.84058932118E-01  9.05895187742E-01  9.28270798879E-01
  9.51199087611E-01  9.74693705075E-01  9.98768639591E-01  1.02343822499E+00
  1.04871714915E+00  1.07462046273E+00  1.10116358816E+00  1.12836232879E+00
  1.15623287831E+00  1.18479183040E+00  1.21405618861E+00  1.24404337647E+00
  1.27477124787E+00  1.30625809769E+00  1.33852267271E+00  1.37158418272E+00
  1.40546231203E+00  1.44017723114E+00  1.47574960875E+00  1.51220062409E+00
  1.54955197950E+00  1.58782591340E+00  1.62704521346E+00  1.66723323023E+00
  1.70841389102E+00  1.75061171412E+00  1.79385182346E+00  1.83815996350E+00
  1.88356251460E+00  1.93008650871E+00  1.97775964548E+00  2.02661030872E+00
  2.07666758335E+00  2.12796127265E+00  2.18052191609E+00  2.23438080742E+00
  2.28957001336E+00  2.34612239269E+00  2.40407161579E+00  2.46345218470E+00
  2.52429945366E+00  2.58664965017E+00  2.65053989653E+00  2.71600823197E+00
  2.78309363530E+00  2.85183604809E+00  2.92227639848E+00  2.99445662552E+00
  3.06841970417E+00  3.14420967086E+00  3.22187164973E+00  3.30145187948E+00
  3.38299774091E+00  3.46655778511E+00  3.55218176240E+00  3.63992065193E+00
  3.72982669203E+00  3.82195341133E+00  3.91635566059E+00  4.01308964540E+00
  4.11221295964E+00  4.21378461975E+00  4.31786509985E+00  4.42451636782E+00
  4.53380192211E+00  4.64578682958E+00  4.76053776427E+00  4.87812304705E+00
  4.99861268631E+00  5.12207841966E+00  5.24859375663E+00  5.37823402242E+00
  5.51107640277E+00  5.64719998992E+00  5.78668582967E+00  5.92961696967E+00
  6.07607850882E+00  6.22615764798E+00  6.37994374189E+00  6.53752835231E+00
  6.69900530262E+00  6.86447073359E+00  7.03402316071E+00  7.20776353278E+00
  7.38579529204E+00  7.56822443575E+00  7.75515957932E+00  7.94671202092E+00
  8.14299580784E+00  8.34412780430E+00  8.55022776106E+00  8.76141838676E+00
  8.97782542091E+00  9.19957770881E+00  9.42680727822E+00  9.65964941799E+00
  9.89824275861E+00  1.01427293548E+01  1.03932547698E+01  1.06499681626E+01
  1.09130223762E+01  1.11825740289E+01  1.14587836075E+01  1.17418155626E+01
  1.20318384070E+01  1.23290248156E+01  1.26335517285E+01  1.29456004562E+01
  1.32653567875E+01  1.35930111002E+01  1.39287584743E+01  1.42727988087E+01
  1.46253369392E+01  1.49865827616E+01  1.53567513558E+01  1.57360631143E+01
  1.61247438733E+01  1.65230250469E+01  1.69311437656E+01  1.73493430166E+01
  1.77778717891E+01  1.82169852223E+01  1.86669447573E+01  1.91280182928E+01
  1.96004803446E+01  2.00846122091E+01  2.05807021307E+01  2.10890454733E+01
  2.16099448965E+01  2.21437105355E+01  2.26906601857E+01  2.32511194923E+01
  2.38254221437E+01  2.44139100707E+01  2.50169336494E+01  2.56348519106E+01
  2.62680327528E+01  2.69168531618E+01  2.75816994348E+01  2.82629674109E+01
  2.89610627059E+01  2.96764009548E+01  3.04094080584E+01  3.11605204374E+01
  3.19301852922E+01  3.27188608689E+01  3.35270167324E+01  3.43551340457E+01
  3.52037058566E+01  3.60732373913E+01  3.69642463548E+01  3.78772632398E+01
  3.88128316418E+01  3.97715085834E+01  4.07538648454E+01  4.17604853071E+01
  4.27919692941E+01  4.38489309357E+01  4.49319995298E+01  4.60418199182E+01
  4.71790528702E+01  4.83443754761E+01  4.95384815503E+01  5.07620820446E+01
  5.20159054711E+01  5.33006983363E+01  5.46172255852E+01  5.59662710571E+01
  5.73486379522E+01  5.87651493097E+01  6.02166484976E+01  6.17039997155E+01
  6.32280885085E+01  6.47898222946E+01  6.63901309053E+01  6.80299671387E+01
  6.97103073270E+01  7.14321519180E+01  7.31965260703E+01  7.50044802643E+01
  7.68570909268E+01
  </PP_R>
  <PP_RAB>
  1.69443658497E-05  1.73628916862E-05  1.77917551108E-05  1.82312114620E-05
  1.86815223852E-05  1.91429559881E-05  1.96157870010E-05  2.01002969399E-05
  2.05967742743E-05  2.11055145989E-05  2.16268208095E-05  2.21610032835E-05
  2.27083800646E-05  2.32692770522E-05  2.38440281954E-05  2.44329756918E-05
  2.50364701914E-05  2.56548710051E-05  2.62885463189E-05  2.69378734130E-05
  2.76032388863E-05  2.82850388868E-05  2.89836793473E-05  2.96995762272E-05
  3.04331557600E-05  3.11848547073E-05  3.19551206185E-05  3.27444120978E-05
  3.35531990766E-05  3.43819630938E-05  3.52311975822E-05  3.61014081625E-05
  3.69931129441E-05  3.79068428339E-05  3.88431418519E-05  3.98025674556E-05
  4.07856908718E-05  4.17930974363E-05  4.28253869430E-05  4.38831740005E-05
  4.49670883983E-05  4.60777754817E-05  4.72158965361E-05  4.83821291805E-05
  4.95771677713E-05  5.08017238153E-05  5.20565263935E-05  5.33423225954E-05
  5.46598779635E-05  5.60099769492E-05  5.73934233799E-05  5.88110409373E-05
  6.02636736485E-05  6.17521863876E-05  6.32774653914E-05  6.48404187866E-05
  6.64419771306E-05  6.80830939657E-05  6.97647463867E-05  7.14879356224E-05
  7.32536876323E-05  7.50630537168E-05  7.69171111436E-05  7.88169637889E-05
  8.07637427944E-05  8.27586072415E-05  8.48027448403E-05  8.68973726379E-05
  8.90437377420E-05  9.12431180643E-05  9.34968230805E-05  9.58061946105E-05
  9.81726076174E-05  1.00597471026E-04  1.03082228560E-04  1.05628359605E-04
  1.08237380088E-04  1.10910843376E-04  1.13650341207E-04  1.16457504635E-04
  1.19334004999E-04  1.22281554923E-04  1.25301909330E-04  1.28396866490E-04
  1.31568269092E-04  1.34818005339E-04  1.38148010071E-04  1.41560265919E-04
  1.45056804488E-04  1.48639707559E-04  1.52311108335E-04  1.56073192711E-04
  1.59928200571E-04  1.63878427125E-04  1.67926224275E-04  1.72074002015E-04
  1.76324229864E-04  1.80679438342E-04  1.85142220469E-04  1.89715233315E-04
  1.94401199578E-04  1.99202909207E-04  2.04123221065E-04  2.09165064625E-04
  2.14331441721E-04  2.19625428332E-04  2.25050176411E-04  2.30608915769E-04
  2.36304955988E-04  2.42141688401E-04  2.48122588105E-04  2.54251216031E-04
  2.60531221067E-04  2.66966342227E-04  2.73560410880E-04  2.80317353029E-04
  2.87241191649E-04  2.94336049083E-04  3.01606149495E-04  3.09055821387E-04
  3.16689500176E-04  3.24511730830E-04  3.32527170582E-04  3.40740591695E-04
  3.49156884310E-04  3.57781059352E-04  3.66618251518E-04  3.75673722331E-04
  3.84952863272E-04  3.94461198995E-04  4.04204390610E-04  4.14188239058E-04
  4.24418688563E-04  4.34901830171E-04  4.45643905376E-04  4.56651309839E-04
  4.67930597192E-04  4.79488482942E-04  4.91331848471E-04  5.03467745128E-04
  5.15903398433E-04  5.28646212374E-04  5.41703773820E-04  5.55083857033E-04
  5.68794428302E-04  5.82843650681E-04  5.97239888853E-04  6.11991714107E-04
  6.27107909446E-04  6.42597474809E-04  6.58469632437E-04  6.74733832358E-04
  6.91399758017E-04  7.08477332040E-04  7.25976722142E-04  7.43908347179E-04
  7.62282883354E-04  7.81111270573E-04  8.00404718956E-04  8.20174715514E-04
  8.40433030987E-04  8.61191726853E-04  8.82463162506E-04  9.04260002620E-04
  9.26595224685E-04  9.49482126734E-04  9.72934335265E-04  9.96965813346E-04
  1.02159086894E-03  1.04682416340E-03  1.07268072023E-03  1.09917593402E-03
  1.12632557959E-03  1.15414582141E-03  1.18265322320E-03  1.21186475781E-03
  1.24179781733E-03  1.27247022342E-03  1.30390023794E-03  1.33610657381E-03
  1.36910840619E-03  1.40292538382E-03  1.43757764080E-03  1.47308580853E-03
  1.50947102800E-03  1.54675496239E-03  1.58495980996E-03  1.62410831727E-03
  1.66422379270E-03  1.70533012038E-03  1.74745177436E-03  1.79061383318E-03
  1.83484199486E-03  1.88016259214E-03  1.92660260816E-03  1.97418969258E-03
  2.02295217799E-03  2.07291909679E-03  2.12412019848E-03  2.17658596738E-03
  2.23034764077E-03  2.28543722750E-03  2.34188752702E-03  2.39973214894E-03
  2.45900553302E-03  2.51974296968E-03  2.58198062103E-03  2.64575554237E-03
  2.71110570427E-03  2.77807001516E-03  2.84668834454E-03  2.91700154665E-03
  2.98905148485E-03  3.06288105653E-03  3.13853421862E-03  3.21605601382E-03
  3.29549259736E-03  3.37689126452E-03  3.46030047875E-03  3.54576990058E-03
  3.63335041712E-03  3.72309417243E-03  3.81505459848E-03  3.90928644707E-03
  4.00584582231E-03  4.10479021412E-03  4.20617853241E-03  4.31007114216E-03
  4.41652989937E-03  4.52561818789E-03  4.63740095713E-03  4.75194476077E-03
  4.86931779636E-03  4.98958994593E-03  5.11283281759E-03  5.23911978819E-03
  5.36852604696E-03  5.50112864032E-03  5.63700651773E-03  5.77624057872E-03
  5.91891372101E-03  6.06511088992E-03  6.21491912890E-03  6.36842763139E-03
  6.52572779388E-03  6.68691327039E-03  6.85208002817E-03  7.02132640487E-03
  7.19475316707E-03  7.37246357029E-03  7.55456342048E-03  7.74116113697E-03
  7.93236781705E-03  8.12829730213E-03  8.32906624549E-03  8.53479418176E-03
  8.74560359805E-03  8.96162000692E-03  9.18297202109E-03  9.40979143001E-03
  9.64221327833E-03  9.88037594631E-03  1.01244212322E-02  1.03744944366E-02
  1.06307444492E-02  1.08933238371E-02  1.11623889359E-02  1.14380999426E-02
  1.17206210112E-02  1.20101203501E-02  1.23067703228E-02  1.26107475498E-02
  1.29222330142E-02  1.32414121697E-02  1.35684750503E-02  1.39036163840E-02
  1.42470357087E-02  1.45989374907E-02  1.49595312467E-02  1.53290316685E-02
  1.57076587507E-02  1.60956379219E-02  1.64932001786E-02  1.69005822230E-02
  1.73180266039E-02  1.77457818610E-02  1.81841026730E-02  1.86332500090E-02
  1.90934912842E-02  1.95651005189E-02  2.00483585017E-02  2.05435529567E-02
  2.10509787148E-02  2.15709378890E-02  2.21037400549E-02  2.26497024342E-02
  2.32091500844E-02  2.37824160914E-02  2.43698417689E-02  2.49717768606E-02
  2.55885797491E-02  2.62206176689E-02  2.68682669253E-02  2.75319131183E-02
  2.82119513724E-02  2.89087865713E-02  2.96228335996E-02  3.03545175895E-02
  3.11042741739E-02  3.18725497460E-02  3.26598017248E-02  3.34664988274E-02
  3.42931213484E-02  3.51401614457E-02  3.60081234334E-02  3.68975240822E-02
  3.78088929270E-02  3.87427725823E-02  3.96997190651E-02  4.06803021260E-02
  4.16851055885E-02  4.27147276966E-02  4.37697814707E-02  4.48508950730E-02
  4.59587121813E-02  4.70938923722E-02  4.82571115138E-02  4.94490621682E-02
  5.06704540037E-02  5.19220142176E-02  5.32044879688E-02  5.45186388216E-02
  5.58652492005E-02  5.72451208558E-02  5.86590753409E-02  6.01079545018E-02
  6.15926209780E-02  6.31139587162E-02  6.46728734965E-02  6.62702934718E-02
  6.79071697206E-02  6.95844768127E-02  7.13032133900E-02  7.30644027607E-02
  7.48690935089E-02  7.67183601186E-02  7.86133036135E-02  8.05550522127E-02
  8.25447620024E-02  8.45836176239E-02  8.66728329792E-02  8.88136519537E-02
  9.10073491570E-02  9.32552306812E-02  9.55586348790E-02  9.79189331605E-02
  1.00337530810E-01  1.02815867821E-01  1.05355419756E-01  1.07957698624E-01
  1.10624253780E-01  1.13356672848E-01  1.16156582667E-01  1.19025650259E-01
  1.21965583821E-01  1.24978133741E-01  1.28065093644E-01  1.31228301458E-01
  1.34469640504E-01  1.37791040624E-01  1.41194479327E-01  1.44681982967E-01
  1.48255627946E-01  1.51917541956E-01  1.55669905243E-01  1.59514951902E-01
  1.63454971214E-01  1.67492309003E-01  1.71629369035E-01  1.75868614451E-01
  1.80212569228E-01  1.84663819687E-01  1.89225016034E-01  1.93898873930E-01
  1.98688176116E-01  2.03595774066E-01  2.08624589685E-01  2.13777617051E-01
  2.19057924192E-01  2.24468654919E-01  2.30013030696E-01  2.35694352554E-01
  2.41516003062E-01  2.47481448338E-01  2.53594240112E-01  2.59858017842E-01
  2.66276510883E-01  2.72853540702E-01  2.79593023157E-01  2.86498970829E-01
  2.93575495409E-01  3.00826810145E-01  3.08257232356E-01  3.15871185995E-01
  3.23673204289E-01  3.31667932435E-01  3.39860130366E-01  3.48254675586E-01
  3.56856566073E-01  3.65670923255E-01  3.74702995060E-01  3.83958159038E-01
  3.93441925566E-01  4.03159941127E-01  4.13117991673E-01  4.23322006068E-01
  4.33778059617E-01  4.44492377690E-01  4.55471339419E-01  4.66721481503E-01
  4.78249502096E-01  4.90062264797E-01  5.02166802738E-01  5.14570322766E-01
  5.27280209738E-01  5.40304030918E-01  5.53649540482E-01  5.67324684132E-01
  5.81337603830E-01  5.95696642645E-01  6.10410349718E-01  6.25487485356E-01
  6.40937026244E-01  6.56768170792E-01  6.72990344611E-01  6.89613206123E-01
  7.06646652314E-01  7.24100824626E-01  7.41986114995E-01  7.60313172035E-01
  7.79092907384E-01  7.98336502197E-01  8.18055413801E-01  8.38261382522E-01
  8.58966438670E-01  8.80182909705E-01  9.01923427575E-01  9.24200936236E-01
  9.47028699361E-01  9.70420308235E-01  9.94389689849E-01  1.01895111519E+00
  1.04411920773E+00  1.06990895216E+00  1.09633570328E+00  1.12341519515E+00
  1.15116355047E+00  1.17959729017E+00  1.20873334324E+00  1.23858905682E+00
  1.26918220652E+00  1.30053100702E+00  1.33265412289E+00  1.36557067973E+00
  1.39930027552E+00  1.43386299232E+00  1.46927940823E+00  1.50557060962E+00
  1.54275820368E+00  1.58086433131E+00  1.61991168029E+00  1.65992349879E+00
  1.70092360921E+00  1.74293642236E+00  1.78598695199E+00  1.83010082971E+00
  1.87530432020E+00
  </PP_RAB>
</PP_MESH>


<PP_LOCAL>
 -2.83315202594E+01 -2.83315209813E+01 -2.83315216576E+01 -2.83315222879E+01
 -2.83315228718E+01 -2.83315234090E+01 -2.83315238988E+01 -2.83315243407E+01
 -2.83315247341E+01 -2.83315250782E+01 -2.83315253722E+01 -2.83315256153E+01
 -2.83315258065E+01 -2.83315259447E+01 -2.83315260288E+01 -2.83315260575E+01
 -2.83315260296E+01 -2.83315259435E+01 -2.83315257978E+01 -2.83315255909E+01
 -2.83315253208E+01 -2.83315249858E+01 -2.83315245839E+01 -2.83315241128E+01
 -2.83315235704E+01 -2.83315229542E+01 -2.83315222617E+01 -2.83315214901E+01
 -2.83315206365E+01 -2.83315196980E+01 -2.83315186712E+01 -2.83315175527E+01
 -2.83315163390E+01 -2.83315150262E+01 -2.83315136103E+01 -2.83315120871E+01
 -2.83315104520E+01 -2.83315087003E+01 -2.83315068270E+01 -2.83315048269E+01
 -2.83315026945E+01 -2.83315004238E+01 -2.83314980087E+01 -2.83314954428E+01
 -2.83314927193E+01 -2.83314898309E+01 -2.83314867701E+01 -2.83314835290E+01
 -2.83314800992E+01 -2.83314764719E+01 -2.83314726379E+01 -2.83314685874E+01
 -2.83314643102E+01 -2.83314597955E+01 -2.83314550322E+01 -2.83314500082E+01
 -2.83314447110E+01 -2.83314391276E+01 -2.83314332442E+01 -2.83314270462E+01
 -2.83314205185E+01 -2.83314136449E+01 -2.83314064087E+01 -2.83313987923E+01
 -2.83313907770E+01 -2.83313823433E+01 -2.83313734708E+01 -2.83313641379E+01
 -2.83313543220E+01 -2.83313439994E+01 -2.83313331450E+01 -2.83313217328E+01
 -2.83313097352E+01 -2.83312971233E+01 -2.83312838667E+01 -2.83312699335E+01
 -2.83312552902E+01 -2.83312399018E+01 -2.83312237312E+01 -2.83312067397E+01
 -2.83311888866E+01 -2.83311701290E+01 -2.83311504221E+01 -2.83311297188E+01
 -2.83311079694E+01 -2.83310851220E+01 -2.83310611220E+01 -2.83310359120E+01
 -2.83310094319E+01 -2.83309816185E+01 -2.83309524053E+01 -2.83309217227E+01
 -2.83308894974E+01 -2.83308556528E+01 -2.83308201080E+01 -2.83307827785E+01
 -2.83307435752E+01 -2.83307024048E+01 -2.83306591694E+01 -2.83306137659E+01
 -2.83305660863E+01 -2.83305160172E+01 -2.83304634395E+01 -2.83304082282E+01
 -2.83303502519E+01 -2.83302893730E+01 -2.83302254467E+01 -2.83301583212E+01
 -2.83300878370E+01 -2.83300138268E+01 -2.83299361148E+01 -2.83298545168E+01
 -2.83297688390E+01 -2.83296788782E+01 -2.83295844211E+01 -2.83294852438E+01
 -2.83293811113E+01 -2.83292717768E+01 -2.83291569814E+01 -2.83290364534E+01
 -2.83289099075E+01 -2.83287770442E+01 -2.83286375494E+01 -2.83284910933E+01
 -2.83283373298E+01 -2.83281758958E+01 -2.83280064100E+01 -2.83278284725E+01
 -2.83276416635E+01 -2.83274455428E+01 -2.83272396481E+01 -2.83270234946E+01
 -2.83267965734E+01 -2.83265583510E+01 -2.83263082672E+01 -2.83260457345E+01
 -2.83257701367E+01 -2.83254808273E+01 -2.83251771281E+01 -2.83248583278E+01
 -2.83245236803E+01 -2.83241724032E+01 -2.83238036758E+01 -2.83234166377E+01
 -2.83230103864E+01 -2.83225839758E+01 -2.83221364139E+01 -2.83216666606E+01
 -2.83211736256E+01 -2.83206561659E+01 -2.83201130837E+01 -2.83195431234E+01
 -2.83189449692E+01 -2.83183172423E+01 -2.83176584980E+01 -2.83169672228E+01
 -2.83162418309E+01 -2.83154806614E+01 -2.83146819749E+01 -2.83138439496E+01
 -2.83129646780E+01 -2.83120421627E+01 -2.83110743131E+01 -2.83100589406E+01
 -2.83089937550E+01 -2.83078763594E+01 -2.83067042464E+01 -2.83054747926E+01
 -2.83041852542E+01 -2.83028327619E+01 -2.83014143153E+01 -2.82999267780E+01
 -2.82983668713E+01 -2.82967311691E+01 -2.82950160913E+01 -2.82932178981E+01
 -2.82913326831E+01 -2.82893563671E+01 -2.82872846912E+01 -2.82851132096E+01
 -2.82828372824E+01 -2.82804520682E+01 -2.82779525162E+01 -2.82753333584E+01
 -2.82725891012E+01 -2.82697140168E+01 -2.82667021345E+01 -2.82635472316E+01
 -2.82602428237E+01 -2.82567821549E+01 -2.82531581877E+01 -2.82493635921E+01
 -2.82453907344E+01 -2.82412316658E+01 -2.82368781097E+01 -2.82323214489E+01
 -2.82275527121E+01 -2.82225625591E+01 -2.82173412651E+01 -2.82118787050E+01
 -2.82061643349E+01 -2.82001871733E+01 -2.81939357807E+01 -2.81873982372E+01
 -2.81805621183E+01 -2.81734144685E+01 -2.81659417725E+01 -2.81581299237E+01
 -2.81499641891E+01 -2.81414291716E+01 -2.81325087678E+01 -2.81231861212E+01
 -2.81134435713E+01 -2.81032625964E+01 -2.80926237515E+01 -2.80815065981E+01
 -2.80698896278E+01 -2.80577501774E+01 -2.80450643347E+01 -2.80318068348E+01
 -2.80179509452E+01 -2.80034683400E+01 -2.79883289599E+01 -2.79725008594E+01
 -2.79559500377E+01 -2.79386402542E+01 -2.79205328255E+01 -2.79015864035E+01
 -2.78817567328E+01 -2.78609963868E+01 -2.78392544792E+01 -2.78164763520E+01
 -2.77926032357E+01 -2.77675718828E+01 -2.77413141717E+01 -2.77137566793E+01
 -2.76848202232E+01 -2.76544193694E+01 -2.76224619077E+01 -2.75888482912E+01
 -2.75534710418E+01 -2.75162141205E+01 -2.74769522634E+01 -2.74355502836E+01
 -2.73918623424E+01 -2.73457311899E+01 -2.72969873796E+01 -2.72454484616E+01
 -2.71909181588E+01 -2.71331855336E+01 -2.70720241538E+01 -2.70071912673E+01
 -2.69384269978E+01 -2.68654535769E+01 -2.67879746287E+01 -2.67056745261E+01
 -2.66182178433E+01 -2.65252489284E+01 -2.64263916272E+01 -2.63212491897E+01
 -2.62094043988E+01 -2.60904199600E+01 -2.59638391985E+01 -2.58291871142E+01
 -2.56859718463E+01 -2.55336866064E+01 -2.53718121413E+01 -2.51998197880E+01
 -2.50171751889E+01 -2.48233427328E+01 -2.46177907895E+01 -2.43999978035E+01
 -2.41694593068E+01 -2.39256959066E+01 -2.36682622925E+01 -2.33967572952E+01
 -2.31108350135E+01 -2.28102170011E+01 -2.24947054818E+01 -2.21641975251E+01
 -2.18187000769E+01 -2.14583456904E+01 -2.10834087484E+01 -2.06943218983E+01
 -2.02916923483E+01 -1.98763175783E+01 -1.94491999179E+01 -1.90115593152E+01
 -1.85648434795E+01 -1.81107344065E+01 -1.76511500935E+01 -1.71882400202E+01
 -1.67243726907E+01 -1.62621132350E+01 -1.58041887336E+01 -1.53534386109E+01
 -1.49127471894E+01 -1.44849554041E+01 -1.40727489203E+01 -1.36785207312E+01
 -1.33042081121E+01 -1.29511071311E+01 -1.26196734964E+01 -1.23093273437E+01
 -1.20182929059E+01 -1.17435234301E+01 -1.14807892042E+01 -1.12250446483E+01
 -1.09712425199E+01 -1.07158342730E+01 -1.04592928803E+01 -1.02071754798E+01
 -9.96113532756E+00 -9.72102591577E+00 -9.48670427386E+00 -9.25803088141E+00
 -9.03486958391E+00 -8.81708751063E+00 -8.60455499497E+00 -8.39714549675E+00
 -8.19473552655E+00 -7.99720457201E+00 -7.80443502592E+00 -7.61631211610E+00
 -7.43272383701E+00 -7.25356088302E+00 -7.07871658331E+00 -6.90808683835E+00
 -6.74157005789E+00 -6.57906710049E+00 -6.42048121449E+00 -6.26571798037E+00
 -6.11468525458E+00 -5.96729311464E+00 -5.82345380564E+00 -5.68308168795E+00
 -5.54609318625E+00 -5.41240673978E+00 -5.28194275376E+00 -5.15462355202E+00
 -5.03037333075E+00 -4.90911811335E+00 -4.79078570641E+00 -4.67530565669E+00
 -4.56260920922E+00 -4.45262926634E+00 -4.34530034775E+00 -4.24055855153E+00
 -4.13834151608E+00 -4.03858838302E+00 -3.94123976092E+00 -3.84623768998E+00
 -3.75352560748E+00 -3.66304831412E+00 -3.57475194117E+00 -3.48858391839E+00
 -3.40449294270E+00 -3.32242894770E+00 -3.24234307377E+00 -3.16418763909E+00
 -3.08791611114E+00 -3.01348307909E+00 -2.94084422669E+00 -2.86995630593E+00
 -2.80077711128E+00 -2.73326545456E+00 -2.66738114039E+00 -2.60308494231E+00
 -2.54033857940E+00 -2.47910469347E+00 -2.41934682685E+00 -2.36102940065E+00
 -2.30411769362E+00 -2.24857782143E+00 -2.19437671653E+00 -2.14148210846E+00
 -2.08986250459E+00 -2.03948717146E+00 -1.99032611638E+00 -1.94235006966E+00
 -1.89553046712E+00 -1.84983943313E+00 -1.80524976396E+00 -1.76173491164E+00
 -1.71926896813E+00 -1.67782664987E+00 -1.63738328279E+00 -1.59791478754E+00
 -1.55939766521E+00 -1.52180898332E+00 -1.48512636217E+00 -1.44932796152E+00
 -1.41439246757E+00 -1.38029908029E+00 -1.34702750102E+00 -1.31455792038E+00
 -1.28287100652E+00 -1.25194789355E+00 -1.22177017034E+00 -1.19231986956E+00
 -1.16357945698E+00 -1.13553182100E+00 -1.10816026251E+00 -1.08144848494E+00
 -1.05538058450E+00 -1.02994104079E+00 -1.00511470752E+00 -9.80886803471E-01
 -9.57242903748E-01 -9.34168931149E-01 -9.11651147798E-01 -8.89676146968E-01
 -8.68230845094E-01 -8.47302473987E-01 -8.26878573228E-01 -8.06946982754E-01
 -7.87495835614E-01 -7.68513550907E-01 -7.49988826883E-01 -7.31910634218E-01
 -7.14268209444E-01 -6.97051048545E-01 -6.80248900698E-01 -6.63851762172E-01
 -6.47849870374E-01 -6.32233698033E-01 -6.16993947529E-01 -6.02121545358E-01
 -5.87607636731E-01 -5.73443580298E-01 -5.59620943006E-01 -5.46131495077E-01
 -5.32967205111E-01 -5.20120235299E-01 -5.07582936761E-01 -4.95347844990E-01
 -4.83407675407E-01 -4.71755319027E-01 -4.60383838223E-01 -4.49286462597E-01
 -4.38456584949E-01 -4.27887757342E-01 -4.17573687267E-01 -4.07508233890E-01
 -3.97685404401E-01 -3.88099350445E-01 -3.78744364639E-01 -3.69614877172E-01
 -3.60705452496E-01 -3.52010786080E-01 -3.43525701259E-01 -3.35245146149E-01
 -3.27164190640E-01 -3.19278023460E-01 -3.11581949312E-01 -3.04071386076E-01
 -2.96741862083E-01 -2.89589013451E-01 -2.82608581488E-01 -2.75796410157E-01
 -2.69148443600E-01 -2.62660723724E-01 -2.56329387844E-01 -2.50150666385E-01
 -2.44120880633E-01 -2.38236440551E-01 -2.32493842638E-01 -2.26889667842E-01
 -2.21420579528E-01 -2.16083321487E-01 -2.10874716002E-01 -2.05791661952E-01
 -2.00831132968E-01 -1.95990175630E-01 -1.91265907709E-01 -1.86655516453E-01
 -1.82156256907E-01
</PP_LOCAL>


<PP_NONLOCAL>
  <PP_BETA>
    1    0             Beta    L
   394
  9.60845941628E-03  9.84578836386E-03  1.00889793364E-02  1.03381771261E-02
  1.05935300987E-02  1.08551902746E-02  1.11233134432E-02  1.13980592389E-02
  1.16795912394E-02  1.19680770626E-02  1.22636884667E-02  1.25666014521E-02
  1.28769963663E-02  1.31950580112E-02  1.35209757534E-02  1.38549436364E-02
  1.41971604967E-02  1.45478300817E-02  1.49071611714E-02  1.52753677024E-02
  1.56526688951E-02  1.60392893849E-02  1.64354593550E-02  1.68414146742E-02
  1.72573970369E-02  1.76836541070E-02  1.81204396655E-02  1.85680137612E-02
  1.90266428662E-02  1.94966000338E-02  1.99781650612E-02  2.04716246565E-02
  2.09772726086E-02  2.14954099628E-02  2.20263451995E-02  2.25703944181E-02
  2.31278815248E-02  2.36991384260E-02  2.42845052249E-02  2.48843304250E-02
  2.54989711366E-02  2.61287932899E-02  2.67741718525E-02  2.74354910527E-02